 *******************************************************************************
 ** Site#:    0         For non-commercial use only    Version 20.173L 64BITS **
 *******************************************************************************
 ** Cite this program as: MOPAC2016, Version: 20.173L, James J. P. Stewart,   **
 ** Stewart Computational Chemistry, web-site: HTTP://OpenMOPAC.net.          **
 *******************************************************************************
 **                                                                           **
 **                                MOPAC2016                                  **
 **                                                                           **
 *******************************************************************************

                              INDO CALCULATION RESULTS

 *******************************************************************************
 *  CALCULATION DONE:                                Thu Jun  1 14:01:06 2023  *
 *  INDO       - The INDO Hamiltonian to be used
 *
 *
 *
 *                 CHARGE ON SYSTEM = 0
 *
 *
 *
 *  C.I.=(N,M) - 2 DOUBLY FILLED LEVELS USED IN A C.I. INVOLVING 4 M.O.'S
 *  T=         - A TIME OF 172800.0 SECONDS REQUESTED
 *  DUMP=N     - RESTART FILE WRITTEN EVERY 7200.0 SECONDS REQUESTED
 *  RELSCF     - DEFAULT SCF CRITERION MULTIPLIED BY 0.0000
 *              (DEFAULT SCF CRITERION = 0.00010)
 *  ALLVEC     - PRINT ALL EIGENVECTORS
 **********
 *  WARNING: Specified print options may not behave as expected with INDO
 **********
 *******************************************************************************
INDO C.I.=(4,2) AllVEC CHARGE=0 RELSCF=0.000001


   ATOM   CHEMICAL          X               Y               Z
  NUMBER   SYMBOL      (ANGSTROMS)     (ANGSTROMS)     (ANGSTROMS)
 
     1       O         -1.05075660  *   0.47400730  *   0.03501631  *
     2       H         -0.13049752  *   0.35086626  *  -0.26907214  *
     3       H         -1.27346271  *   1.34115659  *  -0.28674233  *
 


          CARTESIAN COORDINATES 

    NO.       ATOM           X           Y           Z

     1         O         -1.0508      0.4740      0.0350
     2         H         -0.1305      0.3509     -0.2691
     3         H         -1.2735      1.3412     -0.2867

           Empirical Formula: H2 O  =     3 atoms



      MOLECULAR POINT GROUP   :   C2v 


      RHF CALCULATION, NO. OF DOUBLY OCCUPIED LEVELS = 4

 WARNING: INDO only performs single-point calculations
  SCF CRITERION =    0.1000E-09

 Summary of symmetry occupancy in each shell:

 SHELL     
    1    4
    v    2
 TOTAL   6




    ROOT NO.    1           2           3           4           5           6

           -40.82286   -19.60019   -14.78461   -12.82521     6.23621     7.85295
  
  
  S  O   1   0.83106     0.00895    -0.40100    -0.00000    -0.38204    -0.05006
 PX  O   1   0.09661     0.58554     0.48368     0.33533    -0.34026     0.43086
 PY  O   1   0.11583    -0.51864     0.53623     0.40223    -0.26470    -0.44520
 PZ  O   1  -0.09272     0.01439    -0.44356     0.85192     0.25891     0.04061
  
  S  H   2   0.36642     0.44437     0.24919     0.00000     0.60942    -0.48454
  
  S  H   3   0.37912    -0.43635     0.24262     0.00000     0.47935     0.61418


 Reference determinate nber   1 is ALPHA 1 -   4
 SINGLE excitations FROM orbs   3 to   4 INTO orbs   5 to   6
 

 CI excitations=    5:        =  5
 The lowest    5 spin-adapted configurations of multiplicity=  1
     sym   eV   cm**-1 -dets- dipole oscilator X FRAG ....Excitations named from first reference determinate
                       tot  #  Debye  strength
 
   1      0.000      0.  1  1  2.4685 0.000000 0  0 (     )->       )
   2     11.076  89336.  1  1  0.6471 0.031886 1  1 (   4 )->   5   )
   3     11.904  96009.  1  1  0.9195 0.000588 1  1 (   4 )->   6   )
   4     13.879 111942.  1  1  0.8791 0.038180 1  1 (   3 )->   5   )
   5     14.725 118768.  1  1  0.6074 0.212309 1  1 (   3 )->   6   )

 Depression of ground-state after CI=          0. cm**-1 Energy=  -465.5708836 eV
 Dipole moment=  1.409014  1.561678 -1.291947 tot=  2.468458 Debyes


  CI trans.  energy frequency wavelength oscillator ---------polarization---------    dipole   ------components----- 
 st.  symm.    eV      cm-1       nm      strength       x          y         z       moment     x       y       z 

   2     11.0684545    89273.    112.02  0.030772   0.335329   0.402228   0.851920  1.115111  -0.751   0.819  -0.091
   3     11.9114337    96072.    104.09  0.001763   0.335331   0.402226   0.851920  1.265493   1.189  -0.264  -0.344
   4     13.8752902   111912.     89.36  0.042173  -0.843746  -0.274054   0.461505  1.125549  -1.058   0.233   0.306
   5     14.7289244   118797.     84.18  0.208111  -0.716433   0.696094  -0.046657  0.931261   0.668  -0.647   0.043
 
 Polarizability (au  ) xx=    1.51 xy=   -0.87 yy=    1.16 xz=    0.05 yz=    0.07 zz=    0.53
 Polarizability (A**3) xx=    0.22 xy=   -0.13 yy=    0.17 xz=    0.01 yz=    0.01 zz=    0.08
 ***********************************
 ***********************************
 CI Matrix
  1.0000000000  0.0000000000  0.0000000000  0.0000000000  0.0000000000 
  0.0000000000 -0.9953485162  0.0963396659  0.0000001016 -0.0000000067 
  0.0000000000 -0.0963396659 -0.9953485162  0.0000000482  0.0000001072 
  0.0000000000 -0.0000001053 -0.0000000310 -0.9978496588  0.0655443242 
  0.0000000000  0.0000000106  0.0000001096  0.0655443242  0.9978496588 
 ***********************************
 ***********************************
 
 
 Major CI contributions to CI states
 
State    1  0.0000     CI coeff  CI percent
    Config       1   1.00000000  1.00000000
 Total coeff printed             1.00000000
  
State    2 11.0685     CI coeff  CI percent
    Config       2  -0.99534852  0.99071867
    Config       3   0.09633967  0.00928133
 Total coeff printed             1.00000000
  
State    3 11.9114     CI coeff  CI percent
    Config       2  -0.09633967  0.00928133
    Config       3  -0.99534852  0.99071867
 Total coeff printed             1.00000000
  
State    4 13.8753     CI coeff  CI percent
    Config       4  -0.99784966  0.99570394
    Config       5   0.06554432  0.00429606
 Total coeff printed             1.00000000
  
State    5 14.7289     CI coeff  CI percent
    Config       4   0.06554432  0.00429606
    Config       5   0.99784966  0.99570394
 Total coeff printed             1.00000000
  

 -------------------------------------------------------------------------------
 INDO C.I.=(4,2) AllVEC CHARGE=0 RELSCF=0.000001




     1SCF WAS SPECIFIED, SO BFGS WAS NOT USED                 
     SCF FIELD WAS ACHIEVED                                   


                              INDO CALCULATION
                                                       MOPAC2016 (Version: 20.173L)
                                                       Thu Jun  1 14:01:06 2023




          FINAL HEAT OF FORMATION =      -8354.98803 KCAL/MOL =  -34957.26991 KJ/MOL


          TOTAL ENERGY            =       -369.40831 EV
          ELECTRONIC ENERGY       =       -465.57088 EV  POINT GROUP:     C2v 
          CORE-CORE REPULSION     =         96.16257 EV
          COSMO AREA              =         42.69 SQUARE ANGSTROMS
          COSMO VOLUME            =         25.38 CUBIC ANGSTROMS

          IONIZATION POTENTIAL    =         12.825206 EV
          HOMO LUMO ENERGIES (EV) =        -12.825  6.236
          NO. OF FILLED LEVELS    =          4
          MOLECULAR WEIGHT        =         18.0152

          MOLECULAR DIMENSIONS (Angstroms)

            Atom       Atom       Distance
            H     3    H     2     1.51240
            O     1    H     3     0.59807
            O     1    H     2     0.00000


          SCF CALCULATIONS        =          1
 
          WALL-CLOCK TIME         =          0.035 SECONDS
          COMPUTATION TIME        =          0.010 SECONDS




   ATOM   CHEMICAL          X               Y               Z
  NUMBER   SYMBOL      (ANGSTROMS)     (ANGSTROMS)     (ANGSTROMS)
 
     1       O         -1.05075660  *   0.47400730  *   0.03501631  *
     2       H         -0.13049752  *   0.35086626  *  -0.26907214  *
     3       H         -1.27346271  *   1.34115659  *  -0.28674233  *

                             CARTESIAN COORDINATES

   1    O       -1.050756600     0.474007295     0.035016312
   2    H       -0.130497517     0.350866261    -0.269072143
   3    H       -1.273462710     1.341156594    -0.286742329


           Empirical Formula: H2 O  =     3 atoms



      MOLECULAR POINT GROUP   :   C2v 


                EIGENVECTORS  


   Root No.       1         2         3         4         5         6

                 1 a1      1 b2      2 a1      1 b1      3 a1      2 b2  

               -40.823   -19.600   -14.785   -12.825     6.236     7.853
  
  S   O    1    0.8311    0.0090   -0.4010   -0.0000   -0.3820   -0.0501
  Px  O    1    0.0966    0.5855    0.4837    0.3353   -0.3403    0.4309
  Py  O    1    0.1158   -0.5186    0.5362    0.4022   -0.2647   -0.4452
  Pz  O    1   -0.0927    0.0144   -0.4436    0.8519    0.2589    0.0406
  S   H    2    0.3664    0.4444    0.2492    0.0000    0.6094   -0.4845
  S   H    3    0.3791   -0.4364    0.2426    0.0000    0.4793    0.6142


              NET ATOMIC CHARGES AND DIPOLE CONTRIBUTIONS

  ATOM NO.   TYPE          CHARGE      No. of ELECS.   s-Pop       p-Pop       
    1          O          -0.426334        6.4263     1.70308     4.72326
    2          H           0.212344        0.7877     0.78766
    3          H           0.213991        0.7860     0.78601
 DIPOLE           X         Y         Z       TOTAL
 POINT-CHG.     0.710     0.766    -0.641     1.225
 HYBRID         0.699     0.796    -0.651     1.244
 SUM            1.409     1.562    -1.292     2.469


          ATOMIC ORBITAL ELECTRON POPULATIONS

     Atom    s        px        py        pz   
    1  O   1.70308   1.39717   1.46345   1.86263
    2  H   0.78766
    3  H   0.78601

 **********************
 *                    *
 * JOB ENDED NORMALLY *
 *                    *
 **********************



 TOTAL JOB TIME:             0.07 SECONDS

 == MOPAC DONE ==


          MOPAC Job: "./h2oTraj/h2o_94.mop" ended normally on Jun  1, 2023, at 14:01.

rm: cannot remove ‘./h2oTraj/h2o_94.cim’: No such file or directory
rm: cannot remove ‘./h2oTraj/h2o_94.end’: No such file or directory
rm: cannot remove ‘./h2oTraj/h2o_94.log’: No such file or directory
rm: cannot remove ‘./h2oTraj/h2o_94.temp’: No such file or directory
rm: cannot remove ‘./h2oTraj/h2o_94.ple’: No such file or directory
rm: cannot remove ‘./h2oTraj/h2o_94.sts’: No such file or directory
