 *******************************************************************************
 ** Site#:    0         For non-commercial use only    Version 20.173L 64BITS **
 *******************************************************************************
 ** Cite this program as: MOPAC2016, Version: 20.173L, James J. P. Stewart,   **
 ** Stewart Computational Chemistry, web-site: HTTP://OpenMOPAC.net.          **
 *******************************************************************************
 **                                                                           **
 **                                MOPAC2016                                  **
 **                                                                           **
 *******************************************************************************

                              INDO CALCULATION RESULTS

 *******************************************************************************
 *  CALCULATION DONE:                                Thu Jun  1 14:00:56 2023  *
 *  INDO       - The INDO Hamiltonian to be used
 *
 *
 *
 *                 CHARGE ON SYSTEM = 0
 *
 *
 *
 *  C.I.=(N,M) - 2 DOUBLY FILLED LEVELS USED IN A C.I. INVOLVING 4 M.O.'S
 *  T=         - A TIME OF 172800.0 SECONDS REQUESTED
 *  DUMP=N     - RESTART FILE WRITTEN EVERY 7200.0 SECONDS REQUESTED
 *  RELSCF     - DEFAULT SCF CRITERION MULTIPLIED BY 0.0000
 *              (DEFAULT SCF CRITERION = 0.00010)
 *  ALLVEC     - PRINT ALL EIGENVECTORS
 **********
 *  WARNING: Specified print options may not behave as expected with INDO
 **********
 *******************************************************************************
INDO C.I.=(4,2) AllVEC CHARGE=0 RELSCF=0.000001


   ATOM   CHEMICAL          X               Y               Z
  NUMBER   SYMBOL      (ANGSTROMS)     (ANGSTROMS)     (ANGSTROMS)
 
     1       O         -1.05281941  *   0.46422085  *   0.01482466  *
     2       H         -0.09532169  *   0.46356753  *  -0.14961425  *
     3       H         -1.27589555  *   1.38379580  *  -0.08569784  *
 


          CARTESIAN COORDINATES 

    NO.       ATOM           X           Y           Z

     1         O         -1.0528      0.4642      0.0148
     2         H         -0.0953      0.4636     -0.1496
     3         H         -1.2759      1.3838     -0.0857

           Empirical Formula: H2 O  =     3 atoms



      MOLECULAR POINT GROUP   :   C2v 


      RHF CALCULATION, NO. OF DOUBLY OCCUPIED LEVELS = 4

 WARNING: INDO only performs single-point calculations
  SCF CRITERION =    0.1000E-09

 Summary of symmetry occupancy in each shell:

 SHELL     
    1    4
    v    2
 TOTAL   6




    ROOT NO.    1           2           3           4           5           6

           -40.91429   -19.54865   -14.83393   -12.83171     6.31727     7.83874
  
  
  S  O   1   0.82967     0.00688    -0.40439     0.00000    -0.38260    -0.04106
 PX  O   1   0.10361     0.61279     0.50665     0.16751    -0.34868     0.45543
 PY  O   1   0.14044    -0.48746     0.65101     0.14720    -0.34721    -0.42026
 PZ  O   1  -0.03901    -0.03170    -0.18537     0.97482     0.11235    -0.01480
  
  S  H   2   0.36899     0.44233     0.24910    -0.00000     0.59830    -0.49817
  
  S  H   3   0.37882    -0.43607     0.24401    -0.00000     0.49082     0.60489


 Reference determinate nber   1 is ALPHA 1 -   4
 SINGLE excitations FROM orbs   3 to   4 INTO orbs   5 to   6
 

 CI excitations=    5:        =  5
 The lowest    5 spin-adapted configurations of multiplicity=  1
     sym   eV   cm**-1 -dets- dipole oscilator X FRAG ....Excitations named from first reference determinate
                       tot  #  Debye  strength
 
   1      0.000      0.  1  1  2.4818 0.000000 0  0 (     )->       )
   2     11.152  89943.  1  1  0.5345 0.032196 1  1 (   4 )->   5   )
   3     11.895  95939.  1  1  0.8514 0.000395 1  1 (   4 )->   6   )
   4     13.999 112910.  1  1  0.8037 0.038814 1  1 (   3 )->   5   )
   5     14.765 119090.  1  1  0.4989 0.213322 1  1 (   3 )->   6   )

 Depression of ground-state after CI=          0. cm**-1 Energy=  -465.8494939 eV
 Dipole moment=  1.487222  1.910814 -0.544100 tot=  2.481750 Debyes


  CI trans.  energy frequency wavelength oscillator ---------polarization---------    dipole   ------components----- 
 st.  symm.    eV      cm-1       nm      strength       x          y         z       moment     x       y       z 

   2     11.1457301    89897.    111.24  0.031334   0.167514   0.147198   0.974819  0.960596  -0.662   0.696   0.009
   3     11.9007066    95986.    104.18  0.001299   0.167514   0.147198   0.974819  1.145211   1.129  -0.037  -0.188
   4     13.9963176   112888.     88.58  0.041846  -0.850918  -0.477761   0.218365  1.012429  -0.998   0.023   0.168
   5     14.7679917   119112.     83.95  0.210154  -0.751493   0.659076   0.029617  0.794773   0.587  -0.536  -0.020
 
 Polarizability (au  ) xx=    1.57 xy=   -0.85 yy=    1.05 xz=   -0.04 yz=    0.08 zz=    0.58
 Polarizability (A**3) xx=    0.23 xy=   -0.13 yy=    0.16 xz=   -0.01 yz=    0.01 zz=    0.09
 ***********************************
 ***********************************
 CI Matrix
  1.0000000000  0.0000000000  0.0000000000  0.0000000000  0.0000000000 
  0.0000000000 -0.9961634122  0.0875126056 -0.0000000000  0.0000000000 
  0.0000000000 -0.0875126056 -0.9961634122  0.0000000000 -0.0000000000 
  0.0000000000  0.0000000000 -0.0000000000 -0.9982189628  0.0596565366 
  0.0000000000 -0.0000000000 -0.0000000000  0.0596565366  0.9982189628 
 ***********************************
 ***********************************
 
 
 Major CI contributions to CI states
 
State    1  0.0000     CI coeff  CI percent
    Config       1   1.00000000  1.00000000
 Total coeff printed             1.00000000
  
State    2 11.1457     CI coeff  CI percent
    Config       2  -0.99616341  0.99234154
    Config       3   0.08751261  0.00765846
 Total coeff printed             1.00000000
  
State    3 11.9007     CI coeff  CI percent
    Config       2  -0.08751261  0.00765846
    Config       3  -0.99616341  0.99234154
 Total coeff printed             1.00000000
  
State    4 13.9963     CI coeff  CI percent
    Config       4  -0.99821896  0.99644110
    Config       5   0.05965654  0.00355890
 Total coeff printed             1.00000000
  
State    5 14.7680     CI coeff  CI percent
    Config       4   0.05965654  0.00355890
    Config       5   0.99821896  0.99644110
 Total coeff printed             1.00000000
  

 -------------------------------------------------------------------------------
 INDO C.I.=(4,2) AllVEC CHARGE=0 RELSCF=0.000001




     1SCF WAS SPECIFIED, SO BFGS WAS NOT USED                 
     SCF FIELD WAS ACHIEVED                                   


                              INDO CALCULATION
                                                       MOPAC2016 (Version: 20.173L)
                                                       Thu Jun  1 14:00:57 2023




          FINAL HEAT OF FORMATION =      -8358.36531 KCAL/MOL =  -34971.40044 KJ/MOL


          TOTAL ENERGY            =       -369.55476 EV
          ELECTRONIC ENERGY       =       -465.84949 EV  POINT GROUP:     C2v 
          CORE-CORE REPULSION     =         96.29473 EV
          COSMO AREA              =         42.57 SQUARE ANGSTROMS
          COSMO VOLUME            =         25.33 CUBIC ANGSTROMS

          IONIZATION POTENTIAL    =         12.831712 EV
          HOMO LUMO ENERGIES (EV) =        -12.832  6.317
          NO. OF FILLED LEVELS    =          4
          MOLECULAR WEIGHT        =         18.0152

          MOLECULAR DIMENSIONS (Angstroms)

            Atom       Atom       Distance
            H     3    H     2     1.49822
            H     2    O     1     0.60277
            O     1    H     3     0.00000


          SCF CALCULATIONS        =          1
 
          WALL-CLOCK TIME         =          0.031 SECONDS
          COMPUTATION TIME        =          0.010 SECONDS




   ATOM   CHEMICAL          X               Y               Z
  NUMBER   SYMBOL      (ANGSTROMS)     (ANGSTROMS)     (ANGSTROMS)
 
     1       O         -1.05281941  *   0.46422085  *   0.01482466  *
     2       H         -0.09532169  *   0.46356753  *  -0.14961425  *
     3       H         -1.27589555  *   1.38379580  *  -0.08569784  *

                             CARTESIAN COORDINATES

   1    O       -1.052819408     0.464220846     0.014824661
   2    H       -0.095321687     0.463567526    -0.149614250
   3    H       -1.275895554     1.383795795    -0.085697837


           Empirical Formula: H2 O  =     3 atoms



      MOLECULAR POINT GROUP   :   C2v 


                EIGENVECTORS  


   Root No.       1         2         3         4         5         6

                 1 a1      1 b2      2 a1      1 b1      3 a1      2 b2  

               -40.914   -19.549   -14.834   -12.832     6.317     7.839
  
  S   O    1    0.8297    0.0069   -0.4044    0.0000   -0.3826   -0.0411
  Px  O    1    0.1036    0.6128    0.5067    0.1675   -0.3487    0.4554
  Py  O    1    0.1404   -0.4875    0.6510    0.1472   -0.3472   -0.4203
  Pz  O    1   -0.0390   -0.0317   -0.1854    0.9748    0.1123   -0.0148
  S   H    2    0.3690    0.4423    0.2491   -0.0000    0.5983   -0.4982
  S   H    3    0.3788   -0.4361    0.2440   -0.0000    0.4908    0.6049


              NET ATOMIC CHARGES AND DIPOLE CONTRIBUTIONS

  ATOM NO.   TYPE          CHARGE      No. of ELECS.   s-Pop       p-Pop       
    1          O          -0.425869        6.4259     1.70388     4.72199
    2          H           0.212275        0.7877     0.78773
    3          H           0.213594        0.7864     0.78641
 DIPOLE           X         Y         Z       TOTAL
 POINT-CHG.     0.747     0.943    -0.271     1.233
 HYBRID         0.740     0.968    -0.273     1.249
 SUM            1.487     1.911    -0.544     2.482


          ATOMIC ORBITAL ELECTRON POPULATIONS

     Atom    s        px        py        pz   
    1  O   1.70388   1.34201   1.40566   1.97432
    2  H   0.78773
    3  H   0.78641

 **********************
 *                    *
 * JOB ENDED NORMALLY *
 *                    *
 **********************



 TOTAL JOB TIME:             0.07 SECONDS

 == MOPAC DONE ==


          MOPAC Job: "./h2oTraj/h2o_26.mop" ended normally on Jun  1, 2023, at 14:00.

rm: cannot remove ‘./h2oTraj/h2o_26.cim’: No such file or directory
rm: cannot remove ‘./h2oTraj/h2o_26.end’: No such file or directory
rm: cannot remove ‘./h2oTraj/h2o_26.log’: No such file or directory
rm: cannot remove ‘./h2oTraj/h2o_26.temp’: No such file or directory
rm: cannot remove ‘./h2oTraj/h2o_26.ple’: No such file or directory
rm: cannot remove ‘./h2oTraj/h2o_26.sts’: No such file or directory
