 *******************************************************************************
 ** Site#:    0         For non-commercial use only    Version 20.173L 64BITS **
 *******************************************************************************
 ** Cite this program as: MOPAC2016, Version: 20.173L, James J. P. Stewart,   **
 ** Stewart Computational Chemistry, web-site: HTTP://OpenMOPAC.net.          **
 *******************************************************************************
 **                                                                           **
 **                                MOPAC2016                                  **
 **                                                                           **
 *******************************************************************************

                              INDO CALCULATION RESULTS

 *******************************************************************************
 *  CALCULATION DONE:                                Thu Jun  1 14:00:56 2023  *
 *  INDO       - The INDO Hamiltonian to be used
 *
 *
 *
 *                 CHARGE ON SYSTEM = 0
 *
 *
 *
 *  C.I.=(N,M) - 2 DOUBLY FILLED LEVELS USED IN A C.I. INVOLVING 4 M.O.'S
 *  T=         - A TIME OF 172800.0 SECONDS REQUESTED
 *  DUMP=N     - RESTART FILE WRITTEN EVERY 7200.0 SECONDS REQUESTED
 *  RELSCF     - DEFAULT SCF CRITERION MULTIPLIED BY 0.0000
 *              (DEFAULT SCF CRITERION = 0.00010)
 *  ALLVEC     - PRINT ALL EIGENVECTORS
 **********
 *  WARNING: Specified print options may not behave as expected with INDO
 **********
 *******************************************************************************
INDO C.I.=(4,2) AllVEC CHARGE=0 RELSCF=0.000001


   ATOM   CHEMICAL          X               Y               Z
  NUMBER   SYMBOL      (ANGSTROMS)     (ANGSTROMS)     (ANGSTROMS)
 
     1       O         -1.05094450  *   0.46225201  *   0.00434296  *
     2       H         -0.07091883  *   0.47797299  *  -0.02234482  *
     3       H         -1.33005889  *   1.40064164  *  -0.04659104  *
 


          CARTESIAN COORDINATES 

    NO.       ATOM           X           Y           Z

     1         O         -1.0509      0.4623      0.0043
     2         H         -0.0709      0.4780     -0.0223
     3         H         -1.3301      1.4006     -0.0466

           Empirical Formula: H2 O  =     3 atoms



      MOLECULAR POINT GROUP   :   C2v 


      RHF CALCULATION, NO. OF DOUBLY OCCUPIED LEVELS = 4

 WARNING: INDO only performs single-point calculations
  SCF CRITERION =    0.1000E-09

 Summary of symmetry occupancy in each shell:

 SHELL     
    1    4
    v    2
 TOTAL   6




    ROOT NO.    1           2           3           4           5           6

           -40.37539   -19.64277   -14.67006   -12.80389     5.93563     7.69989
  
  
  S  O   1   0.83648     0.00006    -0.39214     0.00000    -0.38280    -0.00030
 PX  O   1   0.10137     0.62807     0.50260     0.02618    -0.29365     0.50570
 PY  O   1   0.13809    -0.46032     0.68432     0.06194    -0.39905    -0.37104
 PZ  O   1  -0.01123     0.01210    -0.05567     0.99774     0.03248     0.00977
  
  S  H   2   0.36795     0.44359     0.24723    -0.00000     0.55127    -0.55029
  
  S  H   3   0.36804    -0.44354     0.24718    -0.00000     0.55049     0.55108


 Reference determinate nber   1 is ALPHA 1 -   4
 SINGLE excitations FROM orbs   3 to   4 INTO orbs   5 to   6
 

 CI excitations=    5:        =  5
 The lowest    5 spin-adapted configurations of multiplicity=  1
     sym   eV   cm**-1 -dets- dipole oscilator X FRAG ....Excitations named from first reference determinate
                       tot  #  Debye  strength
 
   1      0.000      0.  1  1  2.4422 0.000000 0  0 (     )->       )
   2     10.803  87131.  1  1  0.1001 0.031222 1  1 (   4 )->   5   )
   3     11.735  94650.  1  1  0.7142 0.000000 1  1 (   4 )->   6   )
   4     13.534 109162.  1  1  0.6279 0.032743 1  1 (   3 )->   5   )
   5     14.472 116728.  1  1  0.0142 0.220554 1  1 (   3 )->   6   )

 Depression of ground-state after CI=          0. cm**-1 Energy=  -463.9226548 eV
 Dipole moment=  1.442583  1.964159 -0.159786 tot=  2.442233 Debyes


  CI trans.  energy frequency wavelength oscillator ---------polarization---------    dipole   ------components----- 
 st.  symm.    eV      cm-1       nm      strength       x          y         z       moment     x       y       z 

   2     10.8028001    87131.    114.77  0.031222   0.026177   0.061941   0.997736  0.100214   0.054   0.084  -0.007
   3     11.7350469    94650.    105.65  0.000000   0.025843   0.062011   0.997741  0.714212   0.427   0.571  -0.047
   4     13.5343578   109162.     91.61  0.032743  -0.593140  -0.802440   0.065379  0.627894  -0.376  -0.502   0.041
   5     14.4723854   116728.     85.67  0.220554  -0.806306   0.591295  -0.015554  0.014836  -0.003  -0.014   0.001
 
 Polarizability (au  ) xx=    1.66 xy=   -0.93 yy=    1.08 xz=    0.03 yz=   -0.01 zz=    0.59
 Polarizability (A**3) xx=    0.25 xy=   -0.14 yy=    0.16 xz=    0.00 yz=   -0.00 zz=    0.09
 ***********************************
 ***********************************
 CI Matrix
  1.0000000000  0.0000000000  0.0000000000  0.0000000000  0.0000000000 
  0.0000000000 -0.9999998548  0.0005388499 -0.0000000869  0.0000000115 
  0.0000000000 -0.0005388499 -0.9999998548  0.0000000974 -0.0000000822 
  0.0000000000  0.0000000869 -0.0000000975 -0.9999999316  0.0003699342 
  0.0000000000  0.0000000114 -0.0000000822  0.0003699342  0.9999999316 
 ***********************************
 ***********************************
 
 
 Major CI contributions to CI states
 
State    1  0.0000     CI coeff  CI percent
    Config       1   1.00000000  1.00000000
 Total coeff printed             1.00000000
  
State    2 10.8028     CI coeff  CI percent
    Config       2  -0.99999985  0.99999971
 Total coeff printed             0.99999971
  
State    3 11.7350     CI coeff  CI percent
    Config       3  -0.99999985  0.99999971
 Total coeff printed             0.99999971
  
State    4 13.5344     CI coeff  CI percent
    Config       4  -0.99999993  0.99999986
 Total coeff printed             0.99999986
  
State    5 14.4724     CI coeff  CI percent
    Config       5   0.99999993  0.99999986
 Total coeff printed             0.99999986
  

 -------------------------------------------------------------------------------
 INDO C.I.=(4,2) AllVEC CHARGE=0 RELSCF=0.000001




     1SCF WAS SPECIFIED, SO BFGS WAS NOT USED                 
     SCF FIELD WAS ACHIEVED                                   


                              INDO CALCULATION
                                                       MOPAC2016 (Version: 20.173L)
                                                       Thu Jun  1 14:00:56 2023




          FINAL HEAT OF FORMATION =      -8333.96381 KCAL/MOL =  -34869.30458 KJ/MOL


          TOTAL ENERGY            =       -368.49661 EV
          ELECTRONIC ENERGY       =       -463.92265 EV  POINT GROUP:     C2v 
          CORE-CORE REPULSION     =         95.42604 EV
          COSMO AREA              =         42.70 SQUARE ANGSTROMS
          COSMO VOLUME            =         25.40 CUBIC ANGSTROMS

          IONIZATION POTENTIAL    =         12.803887 EV
          HOMO LUMO ENERGIES (EV) =        -12.804  5.936
          NO. OF FILLED LEVELS    =          4
          MOLECULAR WEIGHT        =         18.0152

          MOLECULAR DIMENSIONS (Angstroms)

            Atom       Atom       Distance
            H     3    H     2     1.56120
            H     2    O     1     0.59322
            H     2    H     3     0.00000


          SCF CALCULATIONS        =          1
 
          WALL-CLOCK TIME         =          0.012 SECONDS
          COMPUTATION TIME        =          0.010 SECONDS




   ATOM   CHEMICAL          X               Y               Z
  NUMBER   SYMBOL      (ANGSTROMS)     (ANGSTROMS)     (ANGSTROMS)
 
     1       O         -1.05094450  *   0.46225201  *   0.00434296  *
     2       H         -0.07091883  *   0.47797299  *  -0.02234482  *
     3       H         -1.33005889  *   1.40064164  *  -0.04659104  *

                             CARTESIAN COORDINATES

   1    O       -1.050944498     0.462252014     0.004342959
   2    H       -0.070918826     0.477972988    -0.022344821
   3    H       -1.330058886     1.400641638    -0.046591043


           Empirical Formula: H2 O  =     3 atoms



      MOLECULAR POINT GROUP   :   C2v 


                EIGENVECTORS  


   Root No.       1         2         3         4         5         6

                 1 a1      1 b2      2 a1      1 b1      3 a1      2 b2  

               -40.375   -19.643   -14.670   -12.804     5.936     7.700
  
  S   O    1    0.8365    0.0001   -0.3921    0.0000   -0.3828   -0.0003
  Px  O    1    0.1014    0.6281    0.5026    0.0262   -0.2937    0.5057
  Py  O    1    0.1381   -0.4603    0.6843    0.0619   -0.3990   -0.3710
  Pz  O    1   -0.0112    0.0121   -0.0557    0.9977    0.0325    0.0098
  S   H    2    0.3679    0.4436    0.2472   -0.0000    0.5513   -0.5503
  S   H    3    0.3680   -0.4435    0.2472   -0.0000    0.5505    0.5511


              NET ATOMIC CHARGES AND DIPOLE CONTRIBUTIONS

  ATOM NO.   TYPE          CHARGE      No. of ELECS.   s-Pop       p-Pop       
    1          O          -0.426892        6.4269     1.70693     4.71996
    2          H           0.213441        0.7866     0.78656
    3          H           0.213451        0.7865     0.78655
 DIPOLE           X         Y         Z       TOTAL
 POINT-CHG.     0.719     0.978    -0.080     1.216
 HYBRID         0.724     0.986    -0.080     1.226
 SUM            1.443     1.964    -0.160     2.442


          ATOMIC ORBITAL ELECTRON POPULATIONS

     Atom    s        px        py        pz   
    1  O   1.70693   1.31608   1.40618   1.99770
    2  H   0.78656
    3  H   0.78655

 **********************
 *                    *
 * JOB ENDED NORMALLY *
 *                    *
 **********************



 TOTAL JOB TIME:             0.02 SECONDS

 == MOPAC DONE ==


          MOPAC Job: "./h2oTraj/h2o_4.mop" ended normally on Jun  1, 2023, at 14:00.

rm: cannot remove ‘./h2oTraj/h2o_4.cim’: No such file or directory
rm: cannot remove ‘./h2oTraj/h2o_4.end’: No such file or directory
rm: cannot remove ‘./h2oTraj/h2o_4.log’: No such file or directory
rm: cannot remove ‘./h2oTraj/h2o_4.temp’: No such file or directory
rm: cannot remove ‘./h2oTraj/h2o_4.ple’: No such file or directory
rm: cannot remove ‘./h2oTraj/h2o_4.sts’: No such file or directory
