 *******************************************************************************
 ** Site#:    0         For non-commercial use only    Version 20.173L 64BITS **
 *******************************************************************************
 ** Cite this program as: MOPAC2016, Version: 20.173L, James J. P. Stewart,   **
 ** Stewart Computational Chemistry, web-site: HTTP://OpenMOPAC.net.          **
 *******************************************************************************
 **                                                                           **
 **                                MOPAC2016                                  **
 **                                                                           **
 *******************************************************************************

                              INDO CALCULATION RESULTS

 *******************************************************************************
 *  CALCULATION DONE:                                Thu Jun  1 14:01:01 2023  *
 *  INDO       - The INDO Hamiltonian to be used
 *
 *
 *
 *                 CHARGE ON SYSTEM = 0
 *
 *
 *
 *  C.I.=(N,M) - 2 DOUBLY FILLED LEVELS USED IN A C.I. INVOLVING 4 M.O.'S
 *  T=         - A TIME OF 172800.0 SECONDS REQUESTED
 *  DUMP=N     - RESTART FILE WRITTEN EVERY 7200.0 SECONDS REQUESTED
 *  RELSCF     - DEFAULT SCF CRITERION MULTIPLIED BY 0.0000
 *              (DEFAULT SCF CRITERION = 0.00010)
 *  ALLVEC     - PRINT ALL EIGENVECTORS
 **********
 *  WARNING: Specified print options may not behave as expected with INDO
 **********
 *******************************************************************************
INDO C.I.=(4,2) AllVEC CHARGE=0 RELSCF=0.000001


   ATOM   CHEMICAL          X               Y               Z
  NUMBER   SYMBOL      (ANGSTROMS)     (ANGSTROMS)     (ANGSTROMS)
 
     1       O         -1.05017818  *   0.46857917  *   0.02748381  *
     2       H         -0.12412120  *   0.41876374  *  -0.18746786  *
     3       H         -1.28902025  *   1.35941989  *  -0.24878313  *
 


          CARTESIAN COORDINATES 

    NO.       ATOM           X           Y           Z

     1         O         -1.0502      0.4686      0.0275
     2         H         -0.1241      0.4188     -0.1875
     3         H         -1.2890      1.3594     -0.2488

           Empirical Formula: H2 O  =     3 atoms



      MOLECULAR POINT GROUP   :   C2v 


      RHF CALCULATION, NO. OF DOUBLY OCCUPIED LEVELS = 4

 WARNING: INDO only performs single-point calculations
  SCF CRITERION =    0.1000E-09

 Summary of symmetry occupancy in each shell:

 SHELL     
    1    4
    v    2
 TOTAL   6




    ROOT NO.    1           2           3           4           5           6

           -40.98740   -19.62868   -14.79928   -12.82977     6.36665     7.91702
  
  
  S  O   1   0.82937    -0.00369    -0.40270     0.00000    -0.38663    -0.02195
 PX  O   1   0.10557     0.61118     0.49331     0.22983    -0.26486    -0.49899
 PY  O   1   0.12338    -0.48862     0.59429     0.34396    -0.37067     0.37032
 PZ  O   1  -0.07326     0.03032    -0.34905     0.91042     0.20690    -0.01394
  
  S  H   2   0.37710     0.43802     0.24305    -0.00000     0.51857     0.58133
  
  S  H   3   0.37177    -0.44148     0.24573    -0.00000     0.57554    -0.52465


 Reference determinate nber   1 is ALPHA 1 -   4
 SINGLE excitations FROM orbs   3 to   4 INTO orbs   5 to   6
 

 CI excitations=    5:        =  5
 The lowest    5 spin-adapted configurations of multiplicity=  1
     sym   eV   cm**-1 -dets- dipole oscilator X FRAG ....Excitations named from first reference determinate
                       tot  #  Debye  strength
 
   1      0.000      0.  1  1  2.4701 0.000000 0  0 (     )->       )
   2     11.210  90415.  1  1  0.3056 0.033051 1  1 (   4 )->   5   )
   3     11.956  96432.  1  1  0.7591 0.000114 1  1 (   4 )->   6   )
   4     13.997 112895.  1  1  0.6856 0.034210 1  1 (   3 )->   5   )
   5     14.785 119251.  1  1  0.2685 0.212202 1  1 (   3 )->   6   )

 Depression of ground-state after CI=          0. cm**-1 Energy=  -466.2425194 eV
 Dipole moment=  1.437395  1.732196 -1.017277 tot=  2.470113 Debyes


  CI trans.  energy frequency wavelength oscillator ---------polarization---------    dipole   ------components----- 
 st.  symm.    eV      cm-1       nm      strength       x          y         z       moment     x       y       z 

   2     11.2082287    90401.    110.62  0.032792   0.229826   0.343958   0.910424  0.536715   0.483  -0.232  -0.034
   3     11.9577660    96446.    103.68  0.000385   0.229826   0.343958   0.910424  0.869249   0.023   0.811  -0.312
   4     13.9963931   112889.     88.58  0.035048  -0.398744  -0.820067   0.410480  0.760176  -0.032  -0.708   0.275
   5     14.7860113   119258.     83.85  0.211326   0.794450  -0.606654   0.028645  0.425146  -0.357   0.231   0.003
 
 Polarizability (au  ) xx=    1.45 xy=   -0.86 yy=    1.13 xz=    0.11 yz=    0.01 zz=    0.55
 Polarizability (A**3) xx=    0.21 xy=   -0.13 yy=    0.17 xz=    0.02 yz=    0.00 zz=    0.08
 ***********************************
 ***********************************
 CI Matrix
  1.0000000000  0.0000000000  0.0000000000  0.0000000000  0.0000000000 
  0.0000000000 -0.9988568092  0.0478024547 -0.0000000000  0.0000000000 
  0.0000000000 -0.0478024547 -0.9988568092 -0.0000000000 -0.0000000000 
  0.0000000000  0.0000000000  0.0000000000 -0.9995200387  0.0309789006 
  0.0000000000 -0.0000000000 -0.0000000000  0.0309789006  0.9995200387 
 ***********************************
 ***********************************
 
 
 Major CI contributions to CI states
 
State    1  0.0000     CI coeff  CI percent
    Config       1   1.00000000  1.00000000
 Total coeff printed             1.00000000
  
State    2 11.2082     CI coeff  CI percent
    Config       2  -0.99885681  0.99771493
    Config       3   0.04780245  0.00228507
 Total coeff printed             1.00000000
  
State    3 11.9578     CI coeff  CI percent
    Config       2  -0.04780245  0.00228507
    Config       3  -0.99885681  0.99771493
 Total coeff printed             1.00000000
  
State    4 13.9964     CI coeff  CI percent
    Config       4  -0.99952004  0.99904031
 Total coeff printed             0.99904031
  
State    5 14.7860     CI coeff  CI percent
    Config       5   0.99952004  0.99904031
 Total coeff printed             0.99904031
  

 -------------------------------------------------------------------------------
 INDO C.I.=(4,2) AllVEC CHARGE=0 RELSCF=0.000001




     1SCF WAS SPECIFIED, SO BFGS WAS NOT USED                 
     SCF FIELD WAS ACHIEVED                                   


                              INDO CALCULATION
                                                       MOPAC2016 (Version: 20.173L)
                                                       Thu Jun  1 14:01:01 2023




          FINAL HEAT OF FORMATION =      -8363.70193 KCAL/MOL =  -34993.72888 KJ/MOL


          TOTAL ENERGY            =       -369.78618 EV
          ELECTRONIC ENERGY       =       -466.24252 EV  POINT GROUP:     C2v 
          CORE-CORE REPULSION     =         96.45634 EV
          COSMO AREA              =         42.58 SQUARE ANGSTROMS
          COSMO VOLUME            =         25.29 CUBIC ANGSTROMS

          IONIZATION POTENTIAL    =         12.829765 EV
          HOMO LUMO ENERGIES (EV) =        -12.830  6.367
          NO. OF FILLED LEVELS    =          4
          MOLECULAR WEIGHT        =         18.0152

          MOLECULAR DIMENSIONS (Angstroms)

            Atom       Atom       Distance
            H     3    H     2     1.49853
            H     2    O     1     0.59596
            H     2    O     1     0.00000


          SCF CALCULATIONS        =          1
 
          WALL-CLOCK TIME         =          0.047 SECONDS
          COMPUTATION TIME        =          0.010 SECONDS




   ATOM   CHEMICAL          X               Y               Z
  NUMBER   SYMBOL      (ANGSTROMS)     (ANGSTROMS)     (ANGSTROMS)
 
     1       O         -1.05017818  *   0.46857917  *   0.02748381  *
     2       H         -0.12412120  *   0.41876374  *  -0.18746786  *
     3       H         -1.28902025  *   1.35941989  *  -0.24878313  *

                             CARTESIAN COORDINATES

   1    O       -1.050178183     0.468579167     0.027483812
   2    H       -0.124121200     0.418763741    -0.187467861
   3    H       -1.289020252     1.359419886    -0.248783130


           Empirical Formula: H2 O  =     3 atoms



      MOLECULAR POINT GROUP   :   C2v 


                EIGENVECTORS  


   Root No.       1         2         3         4         5         6

                 1 a1      1 b2      2 a1      1 b1      3 a1      2 b2  

               -40.987   -19.629   -14.799   -12.830     6.367     7.917
  
  S   O    1    0.8294   -0.0037   -0.4027    0.0000   -0.3866   -0.0220
  Px  O    1    0.1056    0.6112    0.4933    0.2298   -0.2649   -0.4990
  Py  O    1    0.1234   -0.4886    0.5943    0.3440   -0.3707    0.3703
  Pz  O    1   -0.0733    0.0303   -0.3491    0.9104    0.2069   -0.0139
  S   H    2    0.3771    0.4380    0.2430   -0.0000    0.5186    0.5813
  S   H    3    0.3718   -0.4415    0.2457   -0.0000    0.5755   -0.5246


              NET ATOMIC CHARGES AND DIPOLE CONTRIBUTIONS

  ATOM NO.   TYPE          CHARGE      No. of ELECS.   s-Pop       p-Pop       
    1          O          -0.426726        6.4267     1.70007     4.72665
    2          H           0.213721        0.7863     0.78628
    3          H           0.213005        0.7870     0.78699
 DIPOLE           X         Y         Z       TOTAL
 POINT-CHG.     0.706     0.860    -0.503     1.222
 HYBRID         0.731     0.872    -0.514     1.249
 SUM            1.437     1.732    -1.017     2.470


          ATOMIC ORBITAL ELECTRON POPULATIONS

     Atom    s        px        py        pz   
    1  O   1.70007   1.36173   1.45093   1.91399
    2  H   0.78628
    3  H   0.78699

 **********************
 *                    *
 * JOB ENDED NORMALLY *
 *                    *
 **********************



 TOTAL JOB TIME:             0.09 SECONDS

 == MOPAC DONE ==


          MOPAC Job: "./h2oTraj/h2o_56.mop" ended normally on Jun  1, 2023, at 14:01.

rm: cannot remove ‘./h2oTraj/h2o_56.cim’: No such file or directory
rm: cannot remove ‘./h2oTraj/h2o_56.end’: No such file or directory
rm: cannot remove ‘./h2oTraj/h2o_56.log’: No such file or directory
rm: cannot remove ‘./h2oTraj/h2o_56.temp’: No such file or directory
rm: cannot remove ‘./h2oTraj/h2o_56.ple’: No such file or directory
rm: cannot remove ‘./h2oTraj/h2o_56.sts’: No such file or directory
