 *******************************************************************************
 ** Site#:    0         For non-commercial use only    Version 20.173L 64BITS **
 *******************************************************************************
 ** Cite this program as: MOPAC2016, Version: 20.173L, James J. P. Stewart,   **
 ** Stewart Computational Chemistry, web-site: HTTP://OpenMOPAC.net.          **
 *******************************************************************************
 **                                                                           **
 **                                MOPAC2016                                  **
 **                                                                           **
 *******************************************************************************

                              INDO CALCULATION RESULTS

 *******************************************************************************
 *  CALCULATION DONE:                                Thu Jun  1 14:00:56 2023  *
 *  INDO       - The INDO Hamiltonian to be used
 *
 *
 *
 *                 CHARGE ON SYSTEM = 0
 *
 *
 *
 *  C.I.=(N,M) - 2 DOUBLY FILLED LEVELS USED IN A C.I. INVOLVING 4 M.O.'S
 *  T=         - A TIME OF 172800.0 SECONDS REQUESTED
 *  DUMP=N     - RESTART FILE WRITTEN EVERY 7200.0 SECONDS REQUESTED
 *  RELSCF     - DEFAULT SCF CRITERION MULTIPLIED BY 0.0000
 *              (DEFAULT SCF CRITERION = 0.00010)
 *  ALLVEC     - PRINT ALL EIGENVECTORS
 **********
 *  WARNING: Specified print options may not behave as expected with INDO
 **********
 *******************************************************************************
INDO C.I.=(4,2) AllVEC CHARGE=0 RELSCF=0.000001


   ATOM   CHEMICAL          X               Y               Z
  NUMBER   SYMBOL      (ANGSTROMS)     (ANGSTROMS)     (ANGSTROMS)
 
     1       O         -1.05113518  *   0.46093948  *   0.00384366  *
     2       H         -0.06108714  *   0.49687560  *  -0.01263194  *
     3       H         -1.33686392  *   1.40257284  *  -0.04837846  *
 


          CARTESIAN COORDINATES 

    NO.       ATOM           X           Y           Z

     1         O         -1.0511      0.4609      0.0038
     2         H         -0.0611      0.4969     -0.0126
     3         H         -1.3369      1.4026     -0.0484

           Empirical Formula: H2 O  =     3 atoms



      MOLECULAR POINT GROUP   :   C2v 


      RHF CALCULATION, NO. OF DOUBLY OCCUPIED LEVELS = 4

 WARNING: INDO only performs single-point calculations
  SCF CRITERION =    0.1000E-09

 Summary of symmetry occupancy in each shell:

 SHELL     
    1    4
    v    2
 TOTAL   6




    ROOT NO.    1           2           3           4           5           6

           -40.22857   -19.52678   -14.71292   -12.80620     5.85025     7.55461
  
  
  S  O   1   0.83749     0.00204    -0.39388     0.00000    -0.37865    -0.00983
 PX  O   1   0.09896     0.63406     0.49265     0.01444    -0.30326     0.50328
 PY  O   1   0.14054    -0.45280     0.68856     0.05974    -0.39816    -0.37283
 PZ  O   1  -0.00984     0.01793    -0.04834     0.99811     0.02822     0.01503
  
  S  H   2   0.36535     0.44385     0.25147    -0.00000     0.56286    -0.53802
  
  S  H   3   0.36809    -0.44228     0.24993    -0.00000     0.53714     0.56385


 Reference determinate nber   1 is ALPHA 1 -   4
 SINGLE excitations FROM orbs   3 to   4 INTO orbs   5 to   6
 

 CI excitations=    5:        =  5
 The lowest    5 spin-adapted configurations of multiplicity=  1
     sym   eV   cm**-1 -dets- dipole oscilator X FRAG ....Excitations named from first reference determinate
                       tot  #  Debye  strength
 
   1      0.000      0.  1  1  2.4575 0.000000 0  0 (     )->       )
   2     10.712  86395.  1  1  0.1593 0.030290 1  1 (   4 )->   5   )
   3     11.610  93644.  1  1  0.7074 0.000022 1  1 (   4 )->   6   )
   4     13.526 109092.  1  1  0.6347 0.037070 1  1 (   3 )->   5   )
   5     14.406 116190.  1  1  0.1258 0.225297 1  1 (   3 )->   6   )

 Depression of ground-state after CI=          0. cm**-1 Energy=  -463.1940346 eV
 Dipole moment=  1.427357  1.995523 -0.140083 tot=  2.457454 Debyes


  CI trans.  energy frequency wavelength oscillator ---------polarization---------    dipole   ------components----- 
 st.  symm.    eV      cm-1       nm      strength       x          y         z       moment     x       y       z 

   2     10.7113399    86393.    115.75  0.030252   0.014442   0.059736   0.998110  0.242887  -0.130   0.205  -0.010
   3     11.6105866    93646.    106.79  0.000063   0.014431   0.059739   0.998110  0.728944   0.580   0.441  -0.035
   4     13.5255455   109091.     91.67  0.037237  -0.656708  -0.752172   0.054519  0.651564  -0.520  -0.391   0.031
   5     14.4058270   116191.     86.07  0.225121  -0.807603   0.589255  -0.023582  0.194108   0.148  -0.125   0.005
 
 Polarizability (au  ) xx=    1.77 xy=   -0.92 yy=    1.09 xz=    0.04 yz=   -0.02 zz=    0.59
 Polarizability (A**3) xx=    0.26 xy=   -0.14 yy=    0.16 xz=    0.01 yz=   -0.00 zz=    0.09
 ***********************************
 ***********************************
 CI Matrix
  1.0000000000  0.0000000000  0.0000000000  0.0000000000  0.0000000000 
  0.0000000000 -0.9998425335  0.0177456522 -0.0000000995  0.0000000119 
  0.0000000000 -0.0177456522 -0.9998425335  0.0000000794 -0.0000000887 
  0.0000000000  0.0000000982 -0.0000000823 -0.9999165617  0.0129178041 
  0.0000000000  0.0000000090 -0.0000000879  0.0129178041  0.9999165617 
 ***********************************
 ***********************************
 
 
 Major CI contributions to CI states
 
State    1  0.0000     CI coeff  CI percent
    Config       1   1.00000000  1.00000000
 Total coeff printed             1.00000000
  
State    2 10.7113     CI coeff  CI percent
    Config       2  -0.99984253  0.99968509
 Total coeff printed             0.99968509
  
State    3 11.6106     CI coeff  CI percent
    Config       3  -0.99984253  0.99968509
 Total coeff printed             0.99968509
  
State    4 13.5255     CI coeff  CI percent
    Config       4  -0.99991656  0.99983313
 Total coeff printed             0.99983313
  
State    5 14.4058     CI coeff  CI percent
    Config       5   0.99991656  0.99983313
 Total coeff printed             0.99983313
  

 -------------------------------------------------------------------------------
 INDO C.I.=(4,2) AllVEC CHARGE=0 RELSCF=0.000001




     1SCF WAS SPECIFIED, SO BFGS WAS NOT USED                 
     SCF FIELD WAS ACHIEVED                                   


                              INDO CALCULATION
                                                       MOPAC2016 (Version: 20.173L)
                                                       Thu Jun  1 14:00:56 2023




          FINAL HEAT OF FORMATION =      -8324.16734 KCAL/MOL =  -34828.31615 KJ/MOL


          TOTAL ENERGY            =       -368.07180 EV
          ELECTRONIC ENERGY       =       -463.19403 EV  POINT GROUP:     C2v 
          CORE-CORE REPULSION     =         95.12224 EV
          COSMO AREA              =         42.91 SQUARE ANGSTROMS
          COSMO VOLUME            =         25.51 CUBIC ANGSTROMS

          IONIZATION POTENTIAL    =         12.806201 EV
          HOMO LUMO ENERGIES (EV) =        -12.806  5.850
          NO. OF FILLED LEVELS    =          4
          MOLECULAR WEIGHT        =         18.0152

          MOLECULAR DIMENSIONS (Angstroms)

            Atom       Atom       Distance
            H     3    H     2     1.56498
            H     2    O     1     0.60340
            H     2    H     3     0.00000


          SCF CALCULATIONS        =          1
 
          WALL-CLOCK TIME         =          0.047 SECONDS
          COMPUTATION TIME        =          0.010 SECONDS




   ATOM   CHEMICAL          X               Y               Z
  NUMBER   SYMBOL      (ANGSTROMS)     (ANGSTROMS)     (ANGSTROMS)
 
     1       O         -1.05113518  *   0.46093948  *   0.00384366  *
     2       H         -0.06108714  *   0.49687560  *  -0.01263194  *
     3       H         -1.33686392  *   1.40257284  *  -0.04837846  *

                             CARTESIAN COORDINATES

   1    O       -1.051135178     0.460939484     0.003843655
   2    H       -0.061087139     0.496875595    -0.012631940
   3    H       -1.336863915     1.402572841    -0.048378457


           Empirical Formula: H2 O  =     3 atoms



      MOLECULAR POINT GROUP   :   C2v 


                EIGENVECTORS  


   Root No.       1         2         3         4         5         6

                 1 a1      1 b2      2 a1      1 b1      3 a1      2 b2  

               -40.229   -19.527   -14.713   -12.806     5.850     7.555
  
  S   O    1    0.8375    0.0020   -0.3939    0.0000   -0.3786   -0.0098
  Px  O    1    0.0990    0.6341    0.4927    0.0144   -0.3033    0.5033
  Py  O    1    0.1405   -0.4528    0.6886    0.0597   -0.3982   -0.3728
  Pz  O    1   -0.0098    0.0179   -0.0483    0.9981    0.0282    0.0150
  S   H    2    0.3654    0.4438    0.2515   -0.0000    0.5629   -0.5380
  S   H    3    0.3681   -0.4423    0.2499   -0.0000    0.5371    0.5638


              NET ATOMIC CHARGES AND DIPOLE CONTRIBUTIONS

  ATOM NO.   TYPE          CHARGE      No. of ELECS.   s-Pop       p-Pop       
    1          O          -0.425438        6.4254     1.71306     4.71238
    2          H           0.212563        0.7874     0.78744
    3          H           0.212875        0.7871     0.78712
 DIPOLE           X         Y         Z       TOTAL
 POINT-CHG.     0.719     0.999    -0.070     1.233
 HYBRID         0.709     0.996    -0.070     1.225
 SUM            1.427     1.996    -0.140     2.458


          ATOMIC ORBITAL ELECTRON POPULATIONS

     Atom    s        px        py        pz   
    1  O   1.71306   1.30949   1.40493   1.99796
    2  H   0.78744
    3  H   0.78712

 **********************
 *                    *
 * JOB ENDED NORMALLY *
 *                    *
 **********************



 TOTAL JOB TIME:             0.10 SECONDS

 == MOPAC DONE ==


          MOPAC Job: "./h2oTraj/h2o_5.mop" ended normally on Jun  1, 2023, at 14:00.

rm: cannot remove ‘./h2oTraj/h2o_5.cim’: No such file or directory
rm: cannot remove ‘./h2oTraj/h2o_5.end’: No such file or directory
rm: cannot remove ‘./h2oTraj/h2o_5.log’: No such file or directory
rm: cannot remove ‘./h2oTraj/h2o_5.temp’: No such file or directory
rm: cannot remove ‘./h2oTraj/h2o_5.ple’: No such file or directory
rm: cannot remove ‘./h2oTraj/h2o_5.sts’: No such file or directory
