 *******************************************************************************
 ** Site#:    0         For non-commercial use only    Version 20.173L 64BITS **
 *******************************************************************************
 ** Cite this program as: MOPAC2016, Version: 20.173L, James J. P. Stewart,   **
 ** Stewart Computational Chemistry, web-site: HTTP://OpenMOPAC.net.          **
 *******************************************************************************
 **                                                                           **
 **                                MOPAC2016                                  **
 **                                                                           **
 *******************************************************************************

                              INDO CALCULATION RESULTS

 *******************************************************************************
 *  CALCULATION DONE:                                Thu Jun  1 14:00:59 2023  *
 *  INDO       - The INDO Hamiltonian to be used
 *
 *
 *
 *                 CHARGE ON SYSTEM = 0
 *
 *
 *
 *  C.I.=(N,M) - 2 DOUBLY FILLED LEVELS USED IN A C.I. INVOLVING 4 M.O.'S
 *  T=         - A TIME OF 172800.0 SECONDS REQUESTED
 *  DUMP=N     - RESTART FILE WRITTEN EVERY 7200.0 SECONDS REQUESTED
 *  RELSCF     - DEFAULT SCF CRITERION MULTIPLIED BY 0.0000
 *              (DEFAULT SCF CRITERION = 0.00010)
 *  ALLVEC     - PRINT ALL EIGENVECTORS
 **********
 *  WARNING: Specified print options may not behave as expected with INDO
 **********
 *******************************************************************************
INDO C.I.=(4,2) AllVEC CHARGE=0 RELSCF=0.000001


   ATOM   CHEMICAL          X               Y               Z
  NUMBER   SYMBOL      (ANGSTROMS)     (ANGSTROMS)     (ANGSTROMS)
 
     1       O         -1.05418070  *   0.46711052  *   0.01711874  *
     2       H         -0.06323810  *   0.43713067  *  -0.13326652  *
     3       H         -1.28637141  *   1.36436474  *  -0.13845957  *
 


          CARTESIAN COORDINATES 

    NO.       ATOM           X           Y           Z

     1         O         -1.0542      0.4671      0.0171
     2         H         -0.0632      0.4371     -0.1333
     3         H         -1.2864      1.3644     -0.1385

           Empirical Formula: H2 O  =     3 atoms



      MOLECULAR POINT GROUP   :   C2v 


      RHF CALCULATION, NO. OF DOUBLY OCCUPIED LEVELS = 4

 WARNING: INDO only performs single-point calculations
  SCF CRITERION =    0.1000E-09

 Summary of symmetry occupancy in each shell:

 SHELL     
    1    4
    v    2
 TOTAL   6




    ROOT NO.    1           2           3           4           5           6

           -40.64405   -19.61124   -14.72786   -12.81565     5.99611     7.89908
  
  
  S  O   1   0.83328     0.02250    -0.39658    -0.00000    -0.36909    -0.10790
 PX  O   1   0.09421     0.60749     0.51416     0.15291    -0.41915     0.39830
 PY  O   1   0.14049    -0.49021     0.63958     0.20712    -0.26320    -0.46767
 PZ  O   1  -0.04502     0.00894    -0.21845     0.96629     0.12274     0.03721
  
  S  H   2   0.35478     0.45118     0.25468     0.00000     0.67039    -0.39533
  
  S  H   3   0.38619    -0.43185     0.23815     0.00000     0.39284     0.67330


 Reference determinate nber   1 is ALPHA 1 -   4
 SINGLE excitations FROM orbs   3 to   4 INTO orbs   5 to   6
 

 CI excitations=    5:        =  5
 The lowest    5 spin-adapted configurations of multiplicity=  1
     sym   eV   cm**-1 -dets- dipole oscilator X FRAG ....Excitations named from first reference determinate
                       tot  #  Debye  strength
 
   1      0.000      0.  1  1  2.4556 0.000000 0  0 (     )->       )
   2     10.817  87248.  1  1  1.3551 0.029065 1  1 (   4 )->   5   )
   3     11.973  96570.  1  1  1.4184 0.002749 1  1 (   4 )->   6   )
   4     13.608 109754.  1  1  1.4425 0.051303 1  1 (   3 )->   5   )
   5     14.728 118788.  1  1  1.2789 0.201465 1  1 (   3 )->   6   )

 Depression of ground-state after CI=          0. cm**-1 Energy=  -464.8676256 eV
 Dipole moment=  1.486802  1.849442 -0.631695 tot=  2.455617 Debyes


  CI trans.  energy frequency wavelength oscillator ---------polarization---------    dipole   ------components----- 
 st.  symm.    eV      cm-1       nm      strength       x          y         z       moment     x       y       z 

   2     10.7929085    87051.    114.88  0.026070   0.152910   0.207119   0.966292  1.947689  -1.416   1.336  -0.062
   3     11.9975683    96767.    103.34  0.006012   0.152912   0.207117   0.966292  1.940604   1.824  -0.644  -0.151
   4     13.5955997   109656.     91.19  0.063631  -0.980096  -0.093492   0.175134  1.841164  -1.718   0.648   0.133
   5     14.7398494   118885.     84.11  0.188215  -0.715164   0.698007  -0.036443  1.719367   1.302  -1.122   0.035
 
 Polarizability (au  ) xx=    1.73 xy=   -0.87 yy=    0.97 xz=    0.01 yz=    0.06 zz=    0.58
 Polarizability (A**3) xx=    0.26 xy=   -0.13 yy=    0.14 xz=    0.00 yz=    0.01 zz=    0.09
 ***********************************
 ***********************************
 CI Matrix
  1.0000000000  0.0000000000  0.0000000000  0.0000000000  0.0000000000 
  0.0000000000 -0.9897959990  0.1424916855  0.0000001305 -0.0000000181 
  0.0000000000 -0.1424916855 -0.9897959990  0.0000001129  0.0000001611 
  0.0000000000 -0.0000001440 -0.0000000760 -0.9946926935  0.1028904535 
  0.0000000000  0.0000000199  0.0000001708  0.1028904535  0.9946926935 
 ***********************************
 ***********************************
 
 
 Major CI contributions to CI states
 
State    1  0.0000     CI coeff  CI percent
    Config       1   1.00000000  1.00000000
 Total coeff printed             1.00000000
  
State    2 10.7929     CI coeff  CI percent
    Config       2  -0.98979600  0.97969612
    Config       3   0.14249169  0.02030388
 Total coeff printed             1.00000000
  
State    3 11.9976     CI coeff  CI percent
    Config       2  -0.14249169  0.02030388
    Config       3  -0.98979600  0.97969612
 Total coeff printed             1.00000000
  
State    4 13.5956     CI coeff  CI percent
    Config       4  -0.99469269  0.98941355
    Config       5   0.10289045  0.01058645
 Total coeff printed             1.00000000
  
State    5 14.7398     CI coeff  CI percent
    Config       4   0.10289045  0.01058645
    Config       5   0.99469269  0.98941355
 Total coeff printed             1.00000000
  

 -------------------------------------------------------------------------------
 INDO C.I.=(4,2) AllVEC CHARGE=0 RELSCF=0.000001




     1SCF WAS SPECIFIED, SO BFGS WAS NOT USED                 
     SCF FIELD WAS ACHIEVED                                   


                              INDO CALCULATION
                                                       MOPAC2016 (Version: 20.173L)
                                                       Thu Jun  1 14:01:00 2023




          FINAL HEAT OF FORMATION =      -8345.91692 KCAL/MOL =  -34919.31639 KJ/MOL


          TOTAL ENERGY            =       -369.01495 EV
          ELECTRONIC ENERGY       =       -464.86763 EV  POINT GROUP:     C2v 
          CORE-CORE REPULSION     =         95.85268 EV
          COSMO AREA              =         42.59 SQUARE ANGSTROMS
          COSMO VOLUME            =         25.33 CUBIC ANGSTROMS

          IONIZATION POTENTIAL    =         12.815647 EV
          HOMO LUMO ENERGIES (EV) =        -12.816  5.996
          NO. OF FILLED LEVELS    =          4
          MOLECULAR WEIGHT        =         18.0152

          MOLECULAR DIMENSIONS (Angstroms)

            Atom       Atom       Distance
            H     3    H     2     1.53488
            H     2    O     1     0.59480
            H     3    O     1     0.00000


          SCF CALCULATIONS        =          1
 
          WALL-CLOCK TIME         =          0.273 SECONDS
          COMPUTATION TIME        =          0.012 SECONDS




   ATOM   CHEMICAL          X               Y               Z
  NUMBER   SYMBOL      (ANGSTROMS)     (ANGSTROMS)     (ANGSTROMS)
 
     1       O         -1.05418070  *   0.46711052  *   0.01711874  *
     2       H         -0.06323810  *   0.43713067  *  -0.13326652  *
     3       H         -1.28637141  *   1.36436474  *  -0.13845957  *

                             CARTESIAN COORDINATES

   1    O       -1.054180695     0.467110524     0.017118743
   2    H       -0.063238102     0.437130665    -0.133266515
   3    H       -1.286371411     1.364364741    -0.138459565


           Empirical Formula: H2 O  =     3 atoms



      MOLECULAR POINT GROUP   :   C2v 


                EIGENVECTORS  


   Root No.       1         2         3         4         5         6

                 1 a1      1 b2      2 a1      1 b1      5 ????    6 ????

               -40.644   -19.611   -14.728   -12.816     5.996     7.899
  
  S   O    1    0.8333    0.0225   -0.3966   -0.0000   -0.3691   -0.1079
  Px  O    1    0.0942    0.6075    0.5142    0.1529   -0.4192    0.3983
  Py  O    1    0.1405   -0.4902    0.6396    0.2071   -0.2632   -0.4677
  Pz  O    1   -0.0450    0.0089   -0.2185    0.9663    0.1227    0.0372
  S   H    2    0.3548    0.4512    0.2547    0.0000    0.6704   -0.3953
  S   H    3    0.3862   -0.4318    0.2381    0.0000    0.3928    0.6733


              NET ATOMIC CHARGES AND DIPOLE CONTRIBUTIONS

  ATOM NO.   TYPE          CHARGE      No. of ELECS.   s-Pop       p-Pop       
    1          O          -0.426717        6.4267     1.70426     4.72246
    2          H           0.211420        0.7886     0.78858
    3          H           0.215297        0.7847     0.78470
 DIPOLE           X         Y         Z       TOTAL
 POINT-CHG.     0.766     0.897    -0.314     1.221
 HYBRID         0.721     0.952    -0.318     1.236
 SUM            1.487     1.850    -0.632     2.456


          ATOMIC ORBITAL ELECTRON POPULATIONS

     Atom    s        px        py        pz   
    1  O   1.70426   1.33133   1.42403   1.96710
    2  H   0.78858
    3  H   0.78470

 **********************
 *                    *
 * JOB ENDED NORMALLY *
 *                    *
 **********************



 TOTAL JOB TIME:             0.55 SECONDS

 == MOPAC DONE ==


          MOPAC Job: "./h2oTraj/h2o_43.mop" ended normally on Jun  1, 2023, at 14:01.

rm: cannot remove ‘./h2oTraj/h2o_43.cim’: No such file or directory
rm: cannot remove ‘./h2oTraj/h2o_43.end’: No such file or directory
rm: cannot remove ‘./h2oTraj/h2o_43.log’: No such file or directory
rm: cannot remove ‘./h2oTraj/h2o_43.temp’: No such file or directory
rm: cannot remove ‘./h2oTraj/h2o_43.ple’: No such file or directory
rm: cannot remove ‘./h2oTraj/h2o_43.sts’: No such file or directory
