 *******************************************************************************
 ** Site#:    0         For non-commercial use only    Version 20.173L 64BITS **
 *******************************************************************************
 ** Cite this program as: MOPAC2016, Version: 20.173L, James J. P. Stewart,   **
 ** Stewart Computational Chemistry, web-site: HTTP://OpenMOPAC.net.          **
 *******************************************************************************
 **                                                                           **
 **                                MOPAC2016                                  **
 **                                                                           **
 *******************************************************************************

                              INDO CALCULATION RESULTS

 *******************************************************************************
 *  CALCULATION DONE:                                Thu Jun  1 14:01:04 2023  *
 *  INDO       - The INDO Hamiltonian to be used
 *
 *
 *
 *                 CHARGE ON SYSTEM = 0
 *
 *
 *
 *  C.I.=(N,M) - 2 DOUBLY FILLED LEVELS USED IN A C.I. INVOLVING 4 M.O.'S
 *  T=         - A TIME OF 172800.0 SECONDS REQUESTED
 *  DUMP=N     - RESTART FILE WRITTEN EVERY 7200.0 SECONDS REQUESTED
 *  RELSCF     - DEFAULT SCF CRITERION MULTIPLIED BY 0.0000
 *              (DEFAULT SCF CRITERION = 0.00010)
 *  ALLVEC     - PRINT ALL EIGENVECTORS
 **********
 *  WARNING: Specified print options may not behave as expected with INDO
 **********
 *******************************************************************************
INDO C.I.=(4,2) AllVEC CHARGE=0 RELSCF=0.000001


   ATOM   CHEMICAL          X               Y               Z
  NUMBER   SYMBOL      (ANGSTROMS)     (ANGSTROMS)     (ANGSTROMS)
 
     1       O         -1.04964972  *   0.47110109  *   0.03188074  *
     2       H         -0.13556275  *   0.38765339  *  -0.17553378  *
     3       H         -1.28596698  *   1.35049964  *  -0.33050973  *
 


          CARTESIAN COORDINATES 

    NO.       ATOM           X           Y           Z

     1         O         -1.0496      0.4711      0.0319
     2         H         -0.1356      0.3877     -0.1755
     3         H         -1.2860      1.3505     -0.3305

           Empirical Formula: H2 O  =     3 atoms



      MOLECULAR POINT GROUP   :   C2v 


      RHF CALCULATION, NO. OF DOUBLY OCCUPIED LEVELS = 4

 WARNING: INDO only performs single-point calculations
  SCF CRITERION =    0.1000E-09

 Summary of symmetry occupancy in each shell:

 SHELL     
    1    4
    v    2
 TOTAL   6




    ROOT NO.    1           2           3           4           5           6

           -40.90726   -19.63233   -14.77632   -12.82591     6.25776     7.93895
  
  
  S  O   1   0.83034    -0.01348    -0.40086    -0.00000    -0.37965    -0.07436
 PX  O   1   0.11113     0.60576     0.49966     0.23705    -0.20363    -0.52286
 PY  O   1   0.11005    -0.48969     0.55373     0.42392    -0.39118     0.32976
 PZ  O   1  -0.08351     0.07321    -0.40404     0.87413     0.24493    -0.01813
  
  S  H   2   0.38309     0.43407     0.23977     0.00000     0.44382     0.64059
  
  S  H   3   0.36379    -0.44643     0.24957     0.00000     0.63594    -0.44906


 Reference determinate nber   1 is ALPHA 1 -   4
 SINGLE excitations FROM orbs   3 to   4 INTO orbs   5 to   6
 

 CI excitations=    5:        =  5
 The lowest    5 spin-adapted configurations of multiplicity=  1
     sym   eV   cm**-1 -dets- dipole oscilator X FRAG ....Excitations named from first reference determinate
                       tot  #  Debye  strength
 
   1      0.000      0.  1  1  2.4649 0.000000 0  0 (     )->       )
   2     11.089  89439.  1  1  0.9395 0.031524 1  1 (   4 )->   5   )
   3     11.993  96728.  1  1  1.1133 0.001308 1  1 (   4 )->   6   )
   4     13.874 111905.  1  1  1.0980 0.041255 1  1 (   3 )->   5   )
   5     14.793 119311.  1  1  0.8866 0.206390 1  1 (   3 )->   6   )

 Depression of ground-state after CI=          0. cm**-1 Energy=  -465.9283530 eV
 Dipole moment=  1.451113  1.609731 -1.174174 tot=  2.464883 Debyes


  CI trans.  energy frequency wavelength oscillator ---------polarization---------    dipole   ------components----- 
 st.  symm.    eV      cm-1       nm      strength       x          y         z       moment     x       y       z 

   2     11.0734200    89313.    111.97  0.029401   0.237047   0.423919   0.874129  1.528894   1.269  -0.851   0.068
   3     12.0081973    96853.    103.25  0.003564   0.237046   0.423920   0.874129  1.600965  -0.720   1.354  -0.461
   4     13.8672788   111847.     89.41  0.048839  -0.025705  -0.896722   0.441847  1.447682   0.659  -1.221   0.413
   5     14.7998929   119369.     83.77  0.198374   0.816470  -0.574546   0.057222  1.297679  -1.039   0.772  -0.093
 
 Polarizability (au  ) xx=    1.37 xy=   -0.87 yy=    1.22 xz=    0.21 yz=   -0.07 zz=    0.57
 Polarizability (A**3) xx=    0.20 xy=   -0.13 yy=    0.18 xz=    0.03 yz=   -0.01 zz=    0.08
 ***********************************
 ***********************************
 CI Matrix
  1.0000000000  0.0000000000  0.0000000000  0.0000000000  0.0000000000 
  0.0000000000 -0.9916612240  0.1288720948  0.0000001221 -0.0000000169 
  0.0000000000 -0.1288720948 -0.9916612240  0.0000000140  0.0000001163 
  0.0000000000 -0.0000001225  0.0000000121 -0.9961338684  0.0878482568 
  0.0000000000  0.0000000090  0.0000001169  0.0878482568  0.9961338684 
 ***********************************
 ***********************************
 
 
 Major CI contributions to CI states
 
State    1  0.0000     CI coeff  CI percent
    Config       1   1.00000000  1.00000000
 Total coeff printed             1.00000000
  
State    2 11.0734     CI coeff  CI percent
    Config       2  -0.99166122  0.98339198
    Config       3   0.12887209  0.01660802
 Total coeff printed             1.00000000
  
State    3 12.0082     CI coeff  CI percent
    Config       2  -0.12887209  0.01660802
    Config       3  -0.99166122  0.98339198
 Total coeff printed             1.00000000
  
State    4 13.8673     CI coeff  CI percent
    Config       4  -0.99613387  0.99228268
    Config       5   0.08784826  0.00771732
 Total coeff printed             1.00000000
  
State    5 14.7999     CI coeff  CI percent
    Config       4   0.08784826  0.00771732
    Config       5   0.99613387  0.99228268
 Total coeff printed             1.00000000
  

 -------------------------------------------------------------------------------
 INDO C.I.=(4,2) AllVEC CHARGE=0 RELSCF=0.000001




     1SCF WAS SPECIFIED, SO BFGS WAS NOT USED                 
     SCF FIELD WAS ACHIEVED                                   


                              INDO CALCULATION
                                                       MOPAC2016 (Version: 20.173L)
                                                       Thu Jun  1 14:01:04 2023




          FINAL HEAT OF FORMATION =      -8359.65696 KCAL/MOL =  -34976.80472 KJ/MOL


          TOTAL ENERGY            =       -369.61077 EV
          ELECTRONIC ENERGY       =       -465.92835 EV  POINT GROUP:     C2v 
          CORE-CORE REPULSION     =         96.31758 EV
          COSMO AREA              =         42.45 SQUARE ANGSTROMS
          COSMO VOLUME            =         25.21 CUBIC ANGSTROMS

          IONIZATION POTENTIAL    =         12.825907 EV
          HOMO LUMO ENERGIES (EV) =        -12.826  6.258
          NO. OF FILLED LEVELS    =          4
          MOLECULAR WEIGHT        =         18.0152

          MOLECULAR DIMENSIONS (Angstroms)

            Atom       Atom       Distance
            H     3    H     2     1.50815
            O     1    H     3     0.59479
            H     3    O     1     0.00000


          SCF CALCULATIONS        =          1
 
          WALL-CLOCK TIME         =          0.262 SECONDS
          COMPUTATION TIME        =          0.010 SECONDS




   ATOM   CHEMICAL          X               Y               Z
  NUMBER   SYMBOL      (ANGSTROMS)     (ANGSTROMS)     (ANGSTROMS)
 
     1       O         -1.04964972  *   0.47110109  *   0.03188074  *
     2       H         -0.13556275  *   0.38765339  *  -0.17553378  *
     3       H         -1.28596698  *   1.35049964  *  -0.33050973  *

                             CARTESIAN COORDINATES

   1    O       -1.049649721     0.471101094     0.031880741
   2    H       -0.135562745     0.387653391    -0.175533783
   3    H       -1.285966982     1.350499643    -0.330509728


           Empirical Formula: H2 O  =     3 atoms



      MOLECULAR POINT GROUP   :   C2v 


                EIGENVECTORS  


   Root No.       1         2         3         4         5         6

                 1 a1      1 b2      2 a1      1 b1      3 a1      2 b2  

               -40.907   -19.632   -14.776   -12.826     6.258     7.939
  
  S   O    1    0.8303   -0.0135   -0.4009   -0.0000   -0.3796   -0.0744
  Px  O    1    0.1111    0.6058    0.4997    0.2370   -0.2036   -0.5229
  Py  O    1    0.1101   -0.4897    0.5537    0.4239   -0.3912    0.3298
  Pz  O    1   -0.0835    0.0732   -0.4040    0.8741    0.2449   -0.0181
  S   H    2    0.3831    0.4341    0.2398    0.0000    0.4438    0.6406
  S   H    3    0.3638   -0.4464    0.2496    0.0000    0.6359   -0.4491


              NET ATOMIC CHARGES AND DIPOLE CONTRIBUTIONS

  ATOM NO.   TYPE          CHARGE      No. of ELECS.   s-Pop       p-Pop       
    1          O          -0.426816        6.4268     1.70068     4.72614
    2          H           0.214674        0.7853     0.78533
    3          H           0.212142        0.7879     0.78786
 DIPOLE           X         Y         Z       TOTAL
 POINT-CHG.     0.702     0.810    -0.583     1.220
 HYBRID         0.749     0.800    -0.591     1.245
 SUM            1.451     1.610    -1.174     2.465


          ATOMIC ORBITAL ELECTRON POPULATIONS

     Atom    s        px        py        pz   
    1  O   1.70068   1.37030   1.47648   1.87936
    2  H   0.78533
    3  H   0.78786

 **********************
 *                    *
 * JOB ENDED NORMALLY *
 *                    *
 **********************



 TOTAL JOB TIME:             0.53 SECONDS

 == MOPAC DONE ==


          MOPAC Job: "./h2oTraj/h2o_79.mop" ended normally on Jun  1, 2023, at 14:01.

rm: cannot remove ‘./h2oTraj/h2o_79.cim’: No such file or directory
rm: cannot remove ‘./h2oTraj/h2o_79.end’: No such file or directory
rm: cannot remove ‘./h2oTraj/h2o_79.log’: No such file or directory
rm: cannot remove ‘./h2oTraj/h2o_79.temp’: No such file or directory
rm: cannot remove ‘./h2oTraj/h2o_79.ple’: No such file or directory
rm: cannot remove ‘./h2oTraj/h2o_79.sts’: No such file or directory
