 *******************************************************************************
 ** Site#:    0         For non-commercial use only    Version 20.173L 64BITS **
 *******************************************************************************
 ** Cite this program as: MOPAC2016, Version: 20.173L, James J. P. Stewart,   **
 ** Stewart Computational Chemistry, web-site: HTTP://OpenMOPAC.net.          **
 *******************************************************************************
 **                                                                           **
 **                                MOPAC2016                                  **
 **                                                                           **
 *******************************************************************************

                              INDO CALCULATION RESULTS

 *******************************************************************************
 *  CALCULATION DONE:                                Thu Jun  1 14:00:59 2023  *
 *  INDO       - The INDO Hamiltonian to be used
 *
 *
 *
 *                 CHARGE ON SYSTEM = 0
 *
 *
 *
 *  C.I.=(N,M) - 2 DOUBLY FILLED LEVELS USED IN A C.I. INVOLVING 4 M.O.'S
 *  T=         - A TIME OF 172800.0 SECONDS REQUESTED
 *  DUMP=N     - RESTART FILE WRITTEN EVERY 7200.0 SECONDS REQUESTED
 *  RELSCF     - DEFAULT SCF CRITERION MULTIPLIED BY 0.0000
 *              (DEFAULT SCF CRITERION = 0.00010)
 *  ALLVEC     - PRINT ALL EIGENVECTORS
 **********
 *  WARNING: Specified print options may not behave as expected with INDO
 **********
 *******************************************************************************
INDO C.I.=(4,2) AllVEC CHARGE=0 RELSCF=0.000001


   ATOM   CHEMICAL          X               Y               Z
  NUMBER   SYMBOL      (ANGSTROMS)     (ANGSTROMS)     (ANGSTROMS)
 
     1       O         -1.05274473  *   0.46246429  *   0.02019779  *
     2       H         -0.07446112  *   0.47704925  *  -0.16185822  *
     3       H         -1.29794148  *   1.39819593  *  -0.15874161  *
 


          CARTESIAN COORDINATES 

    NO.       ATOM           X           Y           Z

     1         O         -1.0527      0.4625      0.0202
     2         H         -0.0745      0.4770     -0.1619
     3         H         -1.2979      1.3982     -0.1587

           Empirical Formula: H2 O  =     3 atoms



      MOLECULAR POINT GROUP   :   C2v 


      RHF CALCULATION, NO. OF DOUBLY OCCUPIED LEVELS = 4

 WARNING: INDO only performs single-point calculations
  SCF CRITERION =    0.1000E-09

 Summary of symmetry occupancy in each shell:

 SHELL     
    1    4
    v    2
 TOTAL   6




    ROOT NO.    1           2           3           4           5           6

           -40.30552   -19.27584   -14.88755   -12.82588     5.94416     7.39142
  
  
  S  O   1   0.83498     0.00428    -0.40425    -0.00000    -0.37257    -0.02380
 PX  O   1   0.10066     0.62299     0.48705     0.17480    -0.32618     0.47706
 PY  O   1   0.13677    -0.47501     0.64009     0.22893    -0.36806    -0.39758
 PZ  O   1  -0.05107    -0.00016    -0.24192     0.95762     0.14753     0.00797
  
  S  H   2   0.36549     0.44104     0.25775     0.00000     0.57781    -0.52115
  
  S  H   3   0.37118    -0.43786     0.25434     0.00000     0.51352     0.58491


 Reference determinate nber   1 is ALPHA 1 -   4
 SINGLE excitations FROM orbs   3 to   4 INTO orbs   5 to   6
 

 CI excitations=    5:        =  5
 The lowest    5 spin-adapted configurations of multiplicity=  1
     sym   eV   cm**-1 -dets- dipole oscilator X FRAG ....Excitations named from first reference determinate
                       tot  #  Debye  strength
 
   1      0.000      0.  1  1  2.5069 0.000000 0  0 (     )->       )
   2     10.777  86921.  1  1  0.3281 0.029505 1  1 (   4 )->   5   )
   3     11.492  92692.  1  1  0.7215 0.000128 1  1 (   4 )->   6   )
   4     13.803 111328.  1  1  0.6814 0.048109 1  1 (   3 )->   5   )
   5     14.471 116713.  1  1  0.3054 0.229339 1  1 (   3 )->   6   )

 Depression of ground-state after CI=          0. cm**-1 Energy=  -463.1444589 eV
 Dipole moment=  1.452463  1.911417 -0.722066 tot=  2.506899 Debyes


  CI trans.  energy frequency wavelength oscillator ---------polarization---------    dipole   ------components----- 
 st.  symm.    eV      cm-1       nm      strength       x          y         z       moment     x       y       z 

   2     10.7749532    86906.    115.07  0.029231   0.174797   0.228929   0.957621  0.584846  -0.404   0.422  -0.027
   3     11.4941359    92707.    107.87  0.000415   0.174802   0.228927   0.957620  0.859071   0.822   0.163  -0.189
   4     13.8016750   111318.     89.83  0.049489  -0.746440  -0.603442   0.280509  0.799529  -0.766  -0.146   0.175
   5     14.4717122   116723.     85.67  0.227907  -0.774139   0.632937  -0.010004  0.520010   0.387  -0.348   0.013
 
 Polarizability (au  ) xx=    1.79 xy=   -0.90 yy=    1.21 xz=   -0.01 yz=    0.01 zz=    0.56
 Polarizability (A**3) xx=    0.26 xy=   -0.13 yy=    0.18 xz=   -0.00 yz=    0.00 zz=    0.08
 ***********************************
 ***********************************
 CI Matrix
  1.0000000000  0.0000000000  0.0000000000  0.0000000000  0.0000000000 
  0.0000000000 -0.9986952648  0.0510663098  0.0000001080 -0.0000000137 
  0.0000000000 -0.0510663098 -0.9986952648 -0.0000000545  0.0000000900 
  0.0000000000 -0.0000001054  0.0000000637 -0.9991193996  0.0419574220 
  0.0000000000 -0.0000000047  0.0000000880  0.0419574220  0.9991193996 
 ***********************************
 ***********************************
 
 
 Major CI contributions to CI states
 
State    1  0.0000     CI coeff  CI percent
    Config       1   1.00000000  1.00000000
 Total coeff printed             1.00000000
  
State    2 10.7750     CI coeff  CI percent
    Config       2  -0.99869526  0.99739223
    Config       3   0.05106631  0.00260777
 Total coeff printed             1.00000000
  
State    3 11.4941     CI coeff  CI percent
    Config       2  -0.05106631  0.00260777
    Config       3  -0.99869526  0.99739223
 Total coeff printed             1.00000000
  
State    4 13.8017     CI coeff  CI percent
    Config       4  -0.99911940  0.99823957
    Config       5   0.04195742  0.00176043
 Total coeff printed             1.00000000
  
State    5 14.4717     CI coeff  CI percent
    Config       4   0.04195742  0.00176043
    Config       5   0.99911940  0.99823957
 Total coeff printed             1.00000000
  

 -------------------------------------------------------------------------------
 INDO C.I.=(4,2) AllVEC CHARGE=0 RELSCF=0.000001




     1SCF WAS SPECIFIED, SO BFGS WAS NOT USED                 
     SCF FIELD WAS ACHIEVED                                   


                              INDO CALCULATION
                                                       MOPAC2016 (Version: 20.173L)
                                                       Thu Jun  1 14:01:00 2023




          FINAL HEAT OF FORMATION =      -8322.59933 KCAL/MOL =  -34821.75558 KJ/MOL


          TOTAL ENERGY            =       -368.00380 EV
          ELECTRONIC ENERGY       =       -463.14446 EV  POINT GROUP:     C2v 
          CORE-CORE REPULSION     =         95.14066 EV
          COSMO AREA              =         43.12 SQUARE ANGSTROMS
          COSMO VOLUME            =         25.67 CUBIC ANGSTROMS

          IONIZATION POTENTIAL    =         12.825882 EV
          HOMO LUMO ENERGIES (EV) =        -12.826  5.944
          NO. OF FILLED LEVELS    =          4
          MOLECULAR WEIGHT        =         18.0152

          MOLECULAR DIMENSIONS (Angstroms)

            Atom       Atom       Distance
            H     3    H     2     1.53148
            H     2    O     1     0.62662
            O     1    H     3     0.00000


          SCF CALCULATIONS        =          1
 
          WALL-CLOCK TIME         =          0.523 SECONDS
          COMPUTATION TIME        =          0.012 SECONDS




   ATOM   CHEMICAL          X               Y               Z
  NUMBER   SYMBOL      (ANGSTROMS)     (ANGSTROMS)     (ANGSTROMS)
 
     1       O         -1.05274473  *   0.46246429  *   0.02019779  *
     2       H         -0.07446112  *   0.47704925  *  -0.16185822  *
     3       H         -1.29794148  *   1.39819593  *  -0.15874161  *

                             CARTESIAN COORDINATES

   1    O       -1.052744730     0.462464289     0.020197789
   2    H       -0.074461123     0.477049247    -0.161858219
   3    H       -1.297941475     1.398195931    -0.158741612


           Empirical Formula: H2 O  =     3 atoms



      MOLECULAR POINT GROUP   :   C2v 


                EIGENVECTORS  


   Root No.       1         2         3         4         5         6

                 1 a1      1 b2      2 a1      1 b1      3 a1      2 b2  

               -40.306   -19.276   -14.888   -12.826     5.944     7.391
  
  S   O    1    0.8350    0.0043   -0.4042   -0.0000   -0.3726   -0.0238
  Px  O    1    0.1007    0.6230    0.4871    0.1748   -0.3262    0.4771
  Py  O    1    0.1368   -0.4750    0.6401    0.2289   -0.3681   -0.3976
  Pz  O    1   -0.0511   -0.0002   -0.2419    0.9576    0.1475    0.0080
  S   H    2    0.3655    0.4410    0.2577    0.0000    0.5778   -0.5212
  S   H    3    0.3712   -0.4379    0.2543    0.0000    0.5135    0.5849


              NET ATOMIC CHARGES AND DIPOLE CONTRIBUTIONS

  ATOM NO.   TYPE          CHARGE      No. of ELECS.   s-Pop       p-Pop       
    1          O          -0.422559        6.4226     1.72125     4.70131
    2          H           0.210927        0.7891     0.78907
    3          H           0.211632        0.7884     0.78837
 DIPOLE           X         Y         Z       TOTAL
 POINT-CHG.     0.742     0.966    -0.366     1.272
 HYBRID         0.711     0.946    -0.356     1.235
 SUM            1.453     1.912    -0.722     2.507


          ATOMIC ORBITAL ELECTRON POPULATIONS

     Atom    s        px        py        pz   
    1  O   1.72125   1.33204   1.41292   1.95634
    2  H   0.78907
    3  H   0.78837

 **********************
 *                    *
 * JOB ENDED NORMALLY *
 *                    *
 **********************



 TOTAL JOB TIME:             1.05 SECONDS

 == MOPAC DONE ==


          MOPAC Job: "./h2oTraj/h2o_36.mop" ended normally on Jun  1, 2023, at 14:01.

rm: cannot remove ‘./h2oTraj/h2o_36.cim’: No such file or directory
rm: cannot remove ‘./h2oTraj/h2o_36.end’: No such file or directory
rm: cannot remove ‘./h2oTraj/h2o_36.log’: No such file or directory
rm: cannot remove ‘./h2oTraj/h2o_36.temp’: No such file or directory
rm: cannot remove ‘./h2oTraj/h2o_36.ple’: No such file or directory
rm: cannot remove ‘./h2oTraj/h2o_36.sts’: No such file or directory
