 *******************************************************************************
 ** Site#:    0         For non-commercial use only    Version 20.173L 64BITS **
 *******************************************************************************
 ** Cite this program as: MOPAC2016, Version: 20.173L, James J. P. Stewart,   **
 ** Stewart Computational Chemistry, web-site: HTTP://OpenMOPAC.net.          **
 *******************************************************************************
 **                                                                           **
 **                                MOPAC2016                                  **
 **                                                                           **
 *******************************************************************************

                              INDO CALCULATION RESULTS

 *******************************************************************************
 *  CALCULATION DONE:                                Thu Jun  1 14:01:04 2023  *
 *  INDO       - The INDO Hamiltonian to be used
 *
 *
 *
 *                 CHARGE ON SYSTEM = 0
 *
 *
 *
 *  C.I.=(N,M) - 2 DOUBLY FILLED LEVELS USED IN A C.I. INVOLVING 4 M.O.'S
 *  T=         - A TIME OF 172800.0 SECONDS REQUESTED
 *  DUMP=N     - RESTART FILE WRITTEN EVERY 7200.0 SECONDS REQUESTED
 *  RELSCF     - DEFAULT SCF CRITERION MULTIPLIED BY 0.0000
 *              (DEFAULT SCF CRITERION = 0.00010)
 *  ALLVEC     - PRINT ALL EIGENVECTORS
 **********
 *  WARNING: Specified print options may not behave as expected with INDO
 **********
 *******************************************************************************
INDO C.I.=(4,2) AllVEC CHARGE=0 RELSCF=0.000001


   ATOM   CHEMICAL          X               Y               Z
  NUMBER   SYMBOL      (ANGSTROMS)     (ANGSTROMS)     (ANGSTROMS)
 
     1       O         -1.04623698  *   0.47196836  *   0.03493265  *
     2       H         -0.14859940  *   0.36782735  *  -0.23962991  *
     3       H         -1.32710087  *   1.35655954  *  -0.31485652  *
 


          CARTESIAN COORDINATES 

    NO.       ATOM           X           Y           Z

     1         O         -1.0462      0.4720      0.0349
     2         H         -0.1486      0.3678     -0.2396
     3         H         -1.3271      1.3566     -0.3149

           Empirical Formula: H2 O  =     3 atoms



      MOLECULAR POINT GROUP   :   C2v 


      RHF CALCULATION, NO. OF DOUBLY OCCUPIED LEVELS = 4

 WARNING: INDO only performs single-point calculations
  SCF CRITERION =    0.1000E-09

 Summary of symmetry occupancy in each shell:

 SHELL     
    1    4
    v    2
 TOTAL   6




    ROOT NO.    1           2           3           4           5           6

           -40.67254   -19.71416   -14.67600   -12.81033     6.05817     7.93564
  
  
  S  O   1   0.83355    -0.01688    -0.39375    -0.00000    -0.37837    -0.08183
 PX  O   1   0.10372     0.60649     0.46837     0.30922    -0.17219    -0.52609
 PY  O   1   0.10477    -0.48905     0.54963     0.43299    -0.39039     0.32846
 PZ  O   1  -0.09146     0.02860    -0.45212     0.84670     0.26252     0.02416
  
  S  H   2   0.38255     0.43518     0.23787     0.00000     0.43606     0.64617
  
  S  H   3   0.35881    -0.45001     0.25001     0.00000     0.64476    -0.43649


 Reference determinate nber   1 is ALPHA 1 -   4
 SINGLE excitations FROM orbs   3 to   4 INTO orbs   5 to   6
 

 CI excitations=    5:        =  5
 The lowest    5 spin-adapted configurations of multiplicity=  1
     sym   eV   cm**-1 -dets- dipole oscilator X FRAG ....Excitations named from first reference determinate
                       tot  #  Debye  strength
 
   1      0.000      0.  1  1  2.4392 0.000000 0  0 (     )->       )
   2     10.902  87930.  1  1  1.0426 0.030784 1  1 (   4 )->   5   )
   3     11.978  96611.  1  1  1.1899 0.001582 1  1 (   4 )->   6   )
   4     13.607 109744.  1  1  1.1811 0.040197 1  1 (   3 )->   5   )
   5     14.684 118438.  1  1  0.9821 0.205686 1  1 (   3 )->   6   )

 Depression of ground-state after CI=          0. cm**-1 Energy=  -465.1397653 eV
 Dipole moment=  1.339801  1.574467 -1.294445 tot=  2.439180 Debyes


  CI trans.  energy frequency wavelength oscillator ---------polarization---------    dipole   ------components----- 
 st.  symm.    eV      cm-1       nm      strength       x          y         z       moment     x       y       z 

   2     10.8856896    87799.    113.90  0.028712   0.309217   0.432986   0.846704  1.599926   1.319  -0.906  -0.018
   3     11.9944830    96742.    103.37  0.003816   0.309215   0.432987   0.846704  1.657031  -0.790   1.393  -0.424
   4     13.5990876   109684.     91.17  0.047934   0.052812  -0.896783   0.439308  1.516864   0.746  -1.267   0.375
   5     14.6918636   118498.     84.39  0.197408   0.813585  -0.581446   0.000217  1.369739  -1.087   0.833  -0.029
 
 Polarizability (au  ) xx=    1.40 xy=   -0.91 yy=    1.26 xz=    0.17 yz=   -0.01 zz=    0.54
 Polarizability (A**3) xx=    0.21 xy=   -0.13 yy=    0.19 xz=    0.03 yz=   -0.00 zz=    0.08
 ***********************************
 ***********************************
 CI Matrix
  1.0000000000  0.0000000000  0.0000000000  0.0000000000  0.0000000000 
  0.0000000000 -0.9926511894  0.1210108098  0.0000001070 -0.0000000108 
  0.0000000000 -0.1210108098 -0.9926511894  0.0000000778  0.0000001236 
  0.0000000000 -0.0000001149 -0.0000000539 -0.9966020502  0.0823671873 
  0.0000000000  0.0000000137  0.0000001288  0.0823671873  0.9966020502 
 ***********************************
 ***********************************
 
 
 Major CI contributions to CI states
 
State    1  0.0000     CI coeff  CI percent
    Config       1   1.00000000  1.00000000
 Total coeff printed             1.00000000
  
State    2 10.8857     CI coeff  CI percent
    Config       2  -0.99265119  0.98535638
    Config       3   0.12101081  0.01464362
 Total coeff printed             1.00000000
  
State    3 11.9945     CI coeff  CI percent
    Config       2  -0.12101081  0.01464362
    Config       3  -0.99265119  0.98535638
 Total coeff printed             1.00000000
  
State    4 13.5991     CI coeff  CI percent
    Config       4  -0.99660205  0.99321565
    Config       5   0.08236719  0.00678435
 Total coeff printed             1.00000000
  
State    5 14.6919     CI coeff  CI percent
    Config       4   0.08236719  0.00678435
    Config       5   0.99660205  0.99321565
 Total coeff printed             1.00000000
  

 -------------------------------------------------------------------------------
 INDO C.I.=(4,2) AllVEC CHARGE=0 RELSCF=0.000001




     1SCF WAS SPECIFIED, SO BFGS WAS NOT USED                 
     SCF FIELD WAS ACHIEVED                                   


                              INDO CALCULATION
                                                       MOPAC2016 (Version: 20.173L)
                                                       Thu Jun  1 14:01:04 2023




          FINAL HEAT OF FORMATION =      -8349.81288 KCAL/MOL =  -34935.61708 KJ/MOL


          TOTAL ENERGY            =       -369.18389 EV
          ELECTRONIC ENERGY       =       -465.13977 EV  POINT GROUP:     C2v 
          CORE-CORE REPULSION     =         95.95587 EV
          COSMO AREA              =         42.63 SQUARE ANGSTROMS
          COSMO VOLUME            =         25.29 CUBIC ANGSTROMS

          IONIZATION POTENTIAL    =         12.810331 EV
          HOMO LUMO ENERGIES (EV) =        -12.810  6.058
          NO. OF FILLED LEVELS    =          4
          MOLECULAR WEIGHT        =         18.0152

          MOLECULAR DIMENSIONS (Angstroms)

            Atom       Atom       Distance
            H     3    H     2     1.54017
            H     2    O     1     0.58647
            O     1    H     3     0.00000


          SCF CALCULATIONS        =          1
 
          WALL-CLOCK TIME         =          0.023 SECONDS
          COMPUTATION TIME        =          0.012 SECONDS




   ATOM   CHEMICAL          X               Y               Z
  NUMBER   SYMBOL      (ANGSTROMS)     (ANGSTROMS)     (ANGSTROMS)
 
     1       O         -1.04623698  *   0.47196836  *   0.03493265  *
     2       H         -0.14859940  *   0.36782735  *  -0.23962991  *
     3       H         -1.32710087  *   1.35655954  *  -0.31485652  *

                             CARTESIAN COORDINATES

   1    O       -1.046236977     0.471968361     0.034932645
   2    H       -0.148599397     0.367827347    -0.239629906
   3    H       -1.327100868     1.356559537    -0.314856518


           Empirical Formula: H2 O  =     3 atoms



      MOLECULAR POINT GROUP   :   C2v 


                EIGENVECTORS  


   Root No.       1         2         3         4         5         6

                 1 a1      1 b2      2 a1      1 b1      3 a1      2 b2  

               -40.673   -19.714   -14.676   -12.810     6.058     7.936
  
  S   O    1    0.8336   -0.0169   -0.3938   -0.0000   -0.3784   -0.0818
  Px  O    1    0.1037    0.6065    0.4684    0.3092   -0.1722   -0.5261
  Py  O    1    0.1048   -0.4890    0.5496    0.4330   -0.3904    0.3285
  Pz  O    1   -0.0915    0.0286   -0.4521    0.8467    0.2625    0.0242
  S   H    2    0.3825    0.4352    0.2379    0.0000    0.4361    0.6462
  S   H    3    0.3588   -0.4500    0.2500    0.0000    0.6448   -0.4365


              NET ATOMIC CHARGES AND DIPOLE CONTRIBUTIONS

  ATOM NO.   TYPE          CHARGE      No. of ELECS.   s-Pop       p-Pop       
    1          O          -0.427866        6.4279     1.70028     4.72759
    2          H           0.215375        0.7846     0.78462
    3          H           0.212491        0.7875     0.78751
 DIPOLE           X         Y         Z       TOTAL
 POINT-CHG.     0.642     0.795    -0.641     1.206
 HYBRID         0.698     0.779    -0.653     1.234
 SUM            1.340     1.575    -1.295     2.439


          ATOMIC ORBITAL ELECTRON POPULATIONS

     Atom    s        px        py        pz   
    1  O   1.70028   1.38716   1.47943   1.86100
    2  H   0.78462
    3  H   0.78751

 **********************
 *                    *
 * JOB ENDED NORMALLY *
 *                    *
 **********************



 TOTAL JOB TIME:             0.53 SECONDS

 == MOPAC DONE ==


          MOPAC Job: "./h2oTraj/h2o_82.mop" ended normally on Jun  1, 2023, at 14:01.

rm: cannot remove ‘./h2oTraj/h2o_82.cim’: No such file or directory
rm: cannot remove ‘./h2oTraj/h2o_82.end’: No such file or directory
rm: cannot remove ‘./h2oTraj/h2o_82.log’: No such file or directory
rm: cannot remove ‘./h2oTraj/h2o_82.temp’: No such file or directory
rm: cannot remove ‘./h2oTraj/h2o_82.ple’: No such file or directory
rm: cannot remove ‘./h2oTraj/h2o_82.sts’: No such file or directory
