 *******************************************************************************
 ** Site#:    0         For non-commercial use only    Version 20.173L 64BITS **
 *******************************************************************************
 ** Cite this program as: MOPAC2016, Version: 20.173L, James J. P. Stewart,   **
 ** Stewart Computational Chemistry, web-site: HTTP://OpenMOPAC.net.          **
 *******************************************************************************
 **                                                                           **
 **                                MOPAC2016                                  **
 **                                                                           **
 *******************************************************************************

                              INDO CALCULATION RESULTS

 *******************************************************************************
 *  CALCULATION DONE:                                Thu Jun  1 14:01:01 2023  *
 *  INDO       - The INDO Hamiltonian to be used
 *
 *
 *
 *                 CHARGE ON SYSTEM = 0
 *
 *
 *
 *  C.I.=(N,M) - 2 DOUBLY FILLED LEVELS USED IN A C.I. INVOLVING 4 M.O.'S
 *  T=         - A TIME OF 172800.0 SECONDS REQUESTED
 *  DUMP=N     - RESTART FILE WRITTEN EVERY 7200.0 SECONDS REQUESTED
 *  RELSCF     - DEFAULT SCF CRITERION MULTIPLIED BY 0.0000
 *              (DEFAULT SCF CRITERION = 0.00010)
 *  ALLVEC     - PRINT ALL EIGENVECTORS
 **********
 *  WARNING: Specified print options may not behave as expected with INDO
 **********
 *******************************************************************************
INDO C.I.=(4,2) AllVEC CHARGE=0 RELSCF=0.000001


   ATOM   CHEMICAL          X               Y               Z
  NUMBER   SYMBOL      (ANGSTROMS)     (ANGSTROMS)     (ANGSTROMS)
 
     1       O         -1.05273597  *   0.46315080  *   0.02105687  *
     2       H         -0.09696997  *   0.46612730  *  -0.13392641  *
     3       H         -1.27557167  *   1.39822085  *  -0.20030962  *
 


          CARTESIAN COORDINATES 

    NO.       ATOM           X           Y           Z

     1         O         -1.0527      0.4632      0.0211
     2         H         -0.0970      0.4661     -0.1339
     3         H         -1.2756      1.3982     -0.2003

           Empirical Formula: H2 O  =     3 atoms



      MOLECULAR POINT GROUP   :   C2v 


      RHF CALCULATION, NO. OF DOUBLY OCCUPIED LEVELS = 4

 WARNING: INDO only performs single-point calculations
  SCF CRITERION =    0.1000E-09

 Summary of symmetry occupancy in each shell:

 SHELL     
    1    4
    v    2
 TOTAL   6




    ROOT NO.    1           2           3           4           5           6

           -40.60780   -19.30395   -14.92729   -12.83453     6.14312     7.53584
  
  
  S  O   1   0.83159    -0.00653    -0.40821    -0.00000    -0.37445    -0.03961
 PX  O   1   0.11039     0.61984     0.49968     0.15367    -0.25596    -0.51459
 PY  O   1   0.13147    -0.48071     0.62541     0.26216    -0.41767     0.34251
 PZ  O   1  -0.05398     0.03230    -0.25270     0.95271     0.15622    -0.01125
  
  S  H   2   0.37598     0.43531     0.25108     0.00000     0.48964     0.60527
  
  S  H   3   0.36704    -0.44060     0.25621     0.00000     0.59638    -0.49984


 Reference determinate nber   1 is ALPHA 1 -   4
 SINGLE excitations FROM orbs   3 to   4 INTO orbs   5 to   6
 

 CI excitations=    5:        =  5
 The lowest    5 spin-adapted configurations of multiplicity=  1
     sym   eV   cm**-1 -dets- dipole oscilator X FRAG ....Excitations named from first reference determinate
                       tot  #  Debye  strength
 
   1      0.000      0.  1  1  2.5141 0.000000 0  0 (     )->       )
   2     10.964  88431.  1  1  0.5238 0.030321 1  1 (   4 )->   5   )
   3     11.633  93828.  1  1  0.8188 0.000360 1  1 (   4 )->   6   )
   4     13.988 112818.  1  1  0.7884 0.048368 1  1 (   3 )->   5   )
   5     14.630 117997.  1  1  0.4952 0.222835 1  1 (   3 )->   6   )

 Depression of ground-state after CI=          0. cm**-1 Energy=  -464.3417355 eV
 Dipole moment=  1.497923  1.872022 -0.756751 tot=  2.514142 Debyes


  CI trans.  energy frequency wavelength oscillator ---------polarization---------    dipole   ------components----- 
 st.  symm.    eV      cm-1       nm      strength       x          y         z       moment     x       y       z 

   2     10.9585706    88387.    113.14  0.029490   0.153671   0.262163   0.952710  0.962399   0.825  -0.496   0.004
   3     11.6387130    93873.    106.53  0.001227   0.153669   0.262167   0.952709  1.129132  -0.338   1.051  -0.235
   4     13.9843320   112792.     88.66  0.052113  -0.265167  -0.917855   0.295344  1.041953   0.312  -0.970   0.217
   5     14.6329540   118023.     84.73  0.218954   0.824214  -0.565820   0.022756  0.845770  -0.703   0.470  -0.016
 
 Polarizability (au  ) xx=    1.60 xy=   -0.89 yy=    1.26 xz=    0.08 yz=   -0.05 zz=    0.57
 Polarizability (A**3) xx=    0.24 xy=   -0.13 yy=    0.19 xz=    0.01 yz=   -0.01 zz=    0.08
 ***********************************
 ***********************************
 CI Matrix
  1.0000000000  0.0000000000  0.0000000000  0.0000000000  0.0000000000 
  0.0000000000 -0.9959499791  0.0899090602  0.0000001760 -0.0000000286 
  0.0000000000 -0.0899090602 -0.9959499791 -0.0000000919  0.0000001363 
  0.0000000000 -0.0000001677  0.0000001169 -0.9974760278  0.0710040414 
  0.0000000000 -0.0000000043  0.0000001303  0.0710040414  0.9974760278 
 ***********************************
 ***********************************
 
 
 Major CI contributions to CI states
 
State    1  0.0000     CI coeff  CI percent
    Config       1   1.00000000  1.00000000
 Total coeff printed             1.00000000
  
State    2 10.9586     CI coeff  CI percent
    Config       2  -0.99594998  0.99191636
    Config       3   0.08990906  0.00808364
 Total coeff printed             1.00000000
  
State    3 11.6387     CI coeff  CI percent
    Config       2  -0.08990906  0.00808364
    Config       3  -0.99594998  0.99191636
 Total coeff printed             1.00000000
  
State    4 13.9843     CI coeff  CI percent
    Config       4  -0.99747603  0.99495843
    Config       5   0.07100404  0.00504157
 Total coeff printed             1.00000000
  
State    5 14.6330     CI coeff  CI percent
    Config       4   0.07100404  0.00504157
    Config       5   0.99747603  0.99495843
 Total coeff printed             1.00000000
  

 -------------------------------------------------------------------------------
 INDO C.I.=(4,2) AllVEC CHARGE=0 RELSCF=0.000001




     1SCF WAS SPECIFIED, SO BFGS WAS NOT USED                 
     SCF FIELD WAS ACHIEVED                                   


                              INDO CALCULATION
                                                       MOPAC2016 (Version: 20.173L)
                                                       Thu Jun  1 14:01:01 2023




          FINAL HEAT OF FORMATION =      -8338.08854 KCAL/MOL =  -34886.56247 KJ/MOL


          TOTAL ENERGY            =       -368.67548 EV
          ELECTRONIC ENERGY       =       -464.34174 EV  POINT GROUP:     C2v 
          CORE-CORE REPULSION     =         95.66626 EV
          COSMO AREA              =         42.77 SQUARE ANGSTROMS
          COSMO VOLUME            =         25.49 CUBIC ANGSTROMS

          IONIZATION POTENTIAL    =         12.834532 EV
          HOMO LUMO ENERGIES (EV) =        -12.835  6.143
          NO. OF FILLED LEVELS    =          4
          MOLECULAR WEIGHT        =         18.0152

          MOLECULAR DIMENSIONS (Angstroms)

            Atom       Atom       Distance
            H     3    H     2     1.50410
            O     1    H     3     0.62414
            H     2    H     3     0.00000


          SCF CALCULATIONS        =          1
 
          WALL-CLOCK TIME         =          0.094 SECONDS
          COMPUTATION TIME        =          0.010 SECONDS




   ATOM   CHEMICAL          X               Y               Z
  NUMBER   SYMBOL      (ANGSTROMS)     (ANGSTROMS)     (ANGSTROMS)
 
     1       O         -1.05273597  *   0.46315080  *   0.02105687  *
     2       H         -0.09696997  *   0.46612730  *  -0.13392641  *
     3       H         -1.27557167  *   1.39822085  *  -0.20030962  *

                             CARTESIAN COORDINATES

   1    O       -1.052735970     0.463150802     0.021056870
   2    H       -0.096969974     0.466127297    -0.133926405
   3    H       -1.275571671     1.398220853    -0.200309621


           Empirical Formula: H2 O  =     3 atoms



      MOLECULAR POINT GROUP   :   C2v 


                EIGENVECTORS  


   Root No.       1         2         3         4         5         6

                 1 a1      1 b2      2 a1      1 b1      3 a1      2 b2  

               -40.608   -19.304   -14.927   -12.835     6.143     7.536
  
  S   O    1    0.8316   -0.0065   -0.4082   -0.0000   -0.3745   -0.0396
  Px  O    1    0.1104    0.6198    0.4997    0.1537   -0.2560   -0.5146
  Py  O    1    0.1315   -0.4807    0.6254    0.2622   -0.4177    0.3425
  Pz  O    1   -0.0540    0.0323   -0.2527    0.9527    0.1562   -0.0112
  S   H    2    0.3760    0.4353    0.2511    0.0000    0.4896    0.6053
  S   H    3    0.3670   -0.4406    0.2562    0.0000    0.5964   -0.4998


              NET ATOMIC CHARGES AND DIPOLE CONTRIBUTIONS

  ATOM NO.   TYPE          CHARGE      No. of ELECS.   s-Pop       p-Pop       
    1          O          -0.423220        6.4232     1.71643     4.70679
    2          H           0.212198        0.7878     0.78780
    3          H           0.211021        0.7890     0.78898
 DIPOLE           X         Y         Z       TOTAL
 POINT-CHG.     0.748     0.951    -0.382     1.269
 HYBRID         0.750     0.921    -0.374     1.245
 SUM            1.498     1.872    -0.757     2.514


          ATOMIC ORBITAL ELECTRON POPULATIONS

     Atom    s        px        py        pz   
    1  O   1.71643   1.33937   1.41647   1.95094
    2  H   0.78780
    3  H   0.78898

 **********************
 *                    *
 * JOB ENDED NORMALLY *
 *                    *
 **********************



 TOTAL JOB TIME:             0.19 SECONDS

 == MOPAC DONE ==


          MOPAC Job: "./h2oTraj/h2o_48.mop" ended normally on Jun  1, 2023, at 14:01.

rm: cannot remove ‘./h2oTraj/h2o_48.cim’: No such file or directory
rm: cannot remove ‘./h2oTraj/h2o_48.end’: No such file or directory
rm: cannot remove ‘./h2oTraj/h2o_48.log’: No such file or directory
rm: cannot remove ‘./h2oTraj/h2o_48.temp’: No such file or directory
rm: cannot remove ‘./h2oTraj/h2o_48.ple’: No such file or directory
rm: cannot remove ‘./h2oTraj/h2o_48.sts’: No such file or directory
