 *******************************************************************************
 ** Site#:    0         For non-commercial use only    Version 20.173L 64BITS **
 *******************************************************************************
 ** Cite this program as: MOPAC2016, Version: 20.173L, James J. P. Stewart,   **
 ** Stewart Computational Chemistry, web-site: HTTP://OpenMOPAC.net.          **
 *******************************************************************************
 **                                                                           **
 **                                MOPAC2016                                  **
 **                                                                           **
 *******************************************************************************

                              INDO CALCULATION RESULTS

 *******************************************************************************
 *  CALCULATION DONE:                                Thu Jun  1 14:00:56 2023  *
 *  INDO       - The INDO Hamiltonian to be used
 *
 *
 *
 *                 CHARGE ON SYSTEM = 0
 *
 *
 *
 *  C.I.=(N,M) - 2 DOUBLY FILLED LEVELS USED IN A C.I. INVOLVING 4 M.O.'S
 *  T=         - A TIME OF 172800.0 SECONDS REQUESTED
 *  DUMP=N     - RESTART FILE WRITTEN EVERY 7200.0 SECONDS REQUESTED
 *  RELSCF     - DEFAULT SCF CRITERION MULTIPLIED BY 0.0000
 *              (DEFAULT SCF CRITERION = 0.00010)
 *  ALLVEC     - PRINT ALL EIGENVECTORS
 **********
 *  WARNING: Specified print options may not behave as expected with INDO
 **********
 *******************************************************************************
INDO C.I.=(4,2) AllVEC CHARGE=0 RELSCF=0.000001


   ATOM   CHEMICAL          X               Y               Z
  NUMBER   SYMBOL      (ANGSTROMS)     (ANGSTROMS)     (ANGSTROMS)
 
     1       O         -1.05050737  *   0.46017749  *   0.00914975  *
     2       H         -0.07422679  *   0.49263088  *  -0.05364071  *
     3       H         -1.33368943  *   1.41891278  *  -0.09159335  *
 


          CARTESIAN COORDINATES 

    NO.       ATOM           X           Y           Z

     1         O         -1.0505      0.4602      0.0091
     2         H         -0.0742      0.4926     -0.0536
     3         H         -1.3337      1.4189     -0.0916

           Empirical Formula: H2 O  =     3 atoms



      MOLECULAR POINT GROUP   :   C2v 


      RHF CALCULATION, NO. OF DOUBLY OCCUPIED LEVELS = 4

 WARNING: INDO only performs single-point calculations
  SCF CRITERION =    0.1000E-09

 Summary of symmetry occupancy in each shell:

 SHELL     
    1    4
    v    2
 TOTAL   6




    ROOT NO.    1           2           3           4           5           6

           -40.17132   -19.44941   -14.74718   -12.80906     5.79966     7.49377
  
  
  S  O   1   0.83771    -0.00980    -0.39549    -0.00000    -0.37352    -0.04716
 PX  O   1   0.10534     0.63437     0.49099     0.05968    -0.23252    -0.53645
 PY  O   1   0.13519    -0.45344     0.67963     0.12174    -0.44477     0.31871
 PZ  O   1  -0.02296     0.01751    -0.11308     0.99077     0.06865    -0.00685
  
  S  H   2   0.37276     0.43879     0.24901     0.00000     0.48378     0.61030
  
  S  H   3   0.35972    -0.44613     0.25655     0.00000     0.60815    -0.48571


 Reference determinate nber   1 is ALPHA 1 -   4
 SINGLE excitations FROM orbs   3 to   4 INTO orbs   5 to   6
 

 CI excitations=    5:        =  5
 The lowest    5 spin-adapted configurations of multiplicity=  1
     sym   eV   cm**-1 -dets- dipole oscilator X FRAG ....Excitations named from first reference determinate
                       tot  #  Debye  strength
 
   1      0.000      0.  1  1  2.4686 0.000000 0  0 (     )->       )
   2     10.649  85894.  1  1  0.6323 0.029304 1  1 (   4 )->   5   )
   3     11.569  93313.  1  1  0.8950 0.000508 1  1 (   4 )->   6   )
   4     13.524 109083.  1  1  0.8637 0.043469 1  1 (   3 )->   5   )
   5     14.402 116162.  1  1  0.5982 0.224768 1  1 (   3 )->   6   )

 Depression of ground-state after CI=          0. cm**-1 Energy=  -462.8582222 eV
 Dipole moment=  1.434531  1.981756 -0.329902 tot=  2.468617 Debyes


  CI trans.  energy frequency wavelength oscillator ---------polarization---------    dipole   ------components----- 
 st.  symm.    eV      cm-1       nm      strength       x          y         z       moment     x       y       z 

   2     10.6433791    85845.    116.49  0.028504   0.059675   0.121735   0.990767  1.039467   0.898  -0.523   0.010
   3     11.5753727    93362.    107.11  0.001360   0.059674   0.121736   0.990767  1.193804  -0.411   1.115  -0.112
   4     13.5211055   109055.     91.70  0.047279  -0.193564  -0.972286   0.131123  1.103208   0.395  -1.025   0.102
   5     14.4056452   116190.     86.07  0.220750   0.842354  -0.538703   0.015454  0.913128  -0.758   0.509  -0.017
 
 Polarizability (au  ) xx=    1.70 xy=   -0.96 yy=    1.24 xz=    0.05 yz=   -0.02 zz=    0.58
 Polarizability (A**3) xx=    0.25 xy=   -0.14 yy=    0.18 xz=    0.01 yz=   -0.00 zz=    0.09
 ***********************************
 ***********************************
 CI Matrix
  1.0000000000  0.0000000000  0.0000000000  0.0000000000  0.0000000000 
  0.0000000000 -0.9967336836  0.0807586771  0.0000000887 -0.0000000065 
  0.0000000000 -0.0807586771 -0.9967336836  0.0000000138  0.0000000829 
  0.0000000000 -0.0000000893 -0.0000000014 -0.9980853367  0.0618519250 
  0.0000000000  0.0000000058  0.0000000834  0.0618519250  0.9980853367 
 ***********************************
 ***********************************
 
 
 Major CI contributions to CI states
 
State    1  0.0000     CI coeff  CI percent
    Config       1   1.00000000  1.00000000
 Total coeff printed             1.00000000
  
State    2 10.6434     CI coeff  CI percent
    Config       2  -0.99673368  0.99347804
    Config       3   0.08075868  0.00652196
 Total coeff printed             1.00000000
  
State    3 11.5754     CI coeff  CI percent
    Config       2  -0.08075868  0.00652196
    Config       3  -0.99673368  0.99347804
 Total coeff printed             1.00000000
  
State    4 13.5211     CI coeff  CI percent
    Config       4  -0.99808534  0.99617434
    Config       5   0.06185193  0.00382566
 Total coeff printed             1.00000000
  
State    5 14.4056     CI coeff  CI percent
    Config       4   0.06185193  0.00382566
    Config       5   0.99808534  0.99617434
 Total coeff printed             1.00000000
  

 -------------------------------------------------------------------------------
 INDO C.I.=(4,2) AllVEC CHARGE=0 RELSCF=0.000001




     1SCF WAS SPECIFIED, SO BFGS WAS NOT USED                 
     SCF FIELD WAS ACHIEVED                                   


                              INDO CALCULATION
                                                       MOPAC2016 (Version: 20.173L)
                                                       Thu Jun  1 14:00:56 2023




          FINAL HEAT OF FORMATION =      -8319.54713 KCAL/MOL =  -34808.98518 KJ/MOL


          TOTAL ENERGY            =       -367.87145 EV
          ELECTRONIC ENERGY       =       -462.85822 EV  POINT GROUP:     C2v 
          CORE-CORE REPULSION     =         94.98678 EV
          COSMO AREA              =         42.93 SQUARE ANGSTROMS
          COSMO VOLUME            =         25.53 CUBIC ANGSTROMS

          IONIZATION POTENTIAL    =         12.809056 EV
          HOMO LUMO ENERGIES (EV) =        -12.809  5.800
          NO. OF FILLED LEVELS    =          4
          MOLECULAR WEIGHT        =         18.0152

          MOLECULAR DIMENSIONS (Angstroms)

            Atom       Atom       Distance
            H     3    H     2     1.56387
            H     2    O     1     0.61002
            O     1    H     3     0.00000


          SCF CALCULATIONS        =          1
 
          WALL-CLOCK TIME         =          0.016 SECONDS
          COMPUTATION TIME        =          0.010 SECONDS




   ATOM   CHEMICAL          X               Y               Z
  NUMBER   SYMBOL      (ANGSTROMS)     (ANGSTROMS)     (ANGSTROMS)
 
     1       O         -1.05050737  *   0.46017749  *   0.00914975  *
     2       H         -0.07422679  *   0.49263088  *  -0.05364071  *
     3       H         -1.33368943  *   1.41891278  *  -0.09159335  *

                             CARTESIAN COORDINATES

   1    O       -1.050507372     0.460177485     0.009149746
   2    H       -0.074226788     0.492630875    -0.053640711
   3    H       -1.333689432     1.418912775    -0.091593352


           Empirical Formula: H2 O  =     3 atoms



      MOLECULAR POINT GROUP   :   C2v 


                EIGENVECTORS  


   Root No.       1         2         3         4         5         6

                 1 a1      1 b2      2 a1      1 b1      3 a1      2 b2  

               -40.171   -19.449   -14.747   -12.809     5.800     7.494
  
  S   O    1    0.8377   -0.0098   -0.3955   -0.0000   -0.3735   -0.0472
  Px  O    1    0.1053    0.6344    0.4910    0.0597   -0.2325   -0.5364
  Py  O    1    0.1352   -0.4534    0.6796    0.1217   -0.4448    0.3187
  Pz  O    1   -0.0230    0.0175   -0.1131    0.9908    0.0687   -0.0068
  S   H    2    0.3728    0.4388    0.2490    0.0000    0.4838    0.6103
  S   H    3    0.3597   -0.4461    0.2566    0.0000    0.6081   -0.4857


              NET ATOMIC CHARGES AND DIPOLE CONTRIBUTIONS

  ATOM NO.   TYPE          CHARGE      No. of ELECS.   s-Pop       p-Pop       
    1          O          -0.424526        6.4245     1.71652     4.70800
    2          H           0.213013        0.7870     0.78699
    3          H           0.211513        0.7885     0.78849
 DIPOLE           X         Y         Z       TOTAL
 POINT-CHG.     0.711     1.007    -0.167     1.244
 HYBRID         0.723     0.975    -0.163     1.225
 SUM            1.435     1.982    -0.330     2.469


          ATOMIC ORBITAL ELECTRON POPULATIONS

     Atom    s        px        py        pz   
    1  O   1.71652   1.31631   1.40121   1.99048
    2  H   0.78699
    3  H   0.78849

 **********************
 *                    *
 * JOB ENDED NORMALLY *
 *                    *
 **********************



 TOTAL JOB TIME:             0.04 SECONDS

 == MOPAC DONE ==


          MOPAC Job: "./h2oTraj/h2o_8.mop" ended normally on Jun  1, 2023, at 14:00.

rm: cannot remove ‘./h2oTraj/h2o_8.cim’: No such file or directory
rm: cannot remove ‘./h2oTraj/h2o_8.end’: No such file or directory
rm: cannot remove ‘./h2oTraj/h2o_8.log’: No such file or directory
rm: cannot remove ‘./h2oTraj/h2o_8.temp’: No such file or directory
rm: cannot remove ‘./h2oTraj/h2o_8.ple’: No such file or directory
rm: cannot remove ‘./h2oTraj/h2o_8.sts’: No such file or directory
