 *******************************************************************************
 ** Site#:    0         For non-commercial use only    Version 20.173L 64BITS **
 *******************************************************************************
 ** Cite this program as: MOPAC2016, Version: 20.173L, James J. P. Stewart,   **
 ** Stewart Computational Chemistry, web-site: HTTP://OpenMOPAC.net.          **
 *******************************************************************************
 **                                                                           **
 **                                MOPAC2016                                  **
 **                                                                           **
 *******************************************************************************

                              INDO CALCULATION RESULTS

 *******************************************************************************
 *  CALCULATION DONE:                                Thu Jun  1 14:01:01 2023  *
 *  INDO       - The INDO Hamiltonian to be used
 *
 *
 *
 *                 CHARGE ON SYSTEM = 0
 *
 *
 *
 *  C.I.=(N,M) - 2 DOUBLY FILLED LEVELS USED IN A C.I. INVOLVING 4 M.O.'S
 *  T=         - A TIME OF 172800.0 SECONDS REQUESTED
 *  DUMP=N     - RESTART FILE WRITTEN EVERY 7200.0 SECONDS REQUESTED
 *  RELSCF     - DEFAULT SCF CRITERION MULTIPLIED BY 0.0000
 *              (DEFAULT SCF CRITERION = 0.00010)
 *  ALLVEC     - PRINT ALL EIGENVECTORS
 **********
 *  WARNING: Specified print options may not behave as expected with INDO
 **********
 *******************************************************************************
INDO C.I.=(4,2) AllVEC CHARGE=0 RELSCF=0.000001


   ATOM   CHEMICAL          X               Y               Z
  NUMBER   SYMBOL      (ANGSTROMS)     (ANGSTROMS)     (ANGSTROMS)
 
     1       O         -1.04980447  *   0.46451769  *   0.02136241  *
     2       H         -0.12529003  *   0.46682713  *  -0.14803031  *
     3       H         -1.29378343  *   1.37582435  *  -0.19105561  *
 


          CARTESIAN COORDINATES 

    NO.       ATOM           X           Y           Z

     1         O         -1.0498      0.4645      0.0214
     2         H         -0.1253      0.4668     -0.1480
     3         H         -1.2938      1.3758     -0.1911

           Empirical Formula: H2 O  =     3 atoms



      MOLECULAR POINT GROUP   :   C2v 


      RHF CALCULATION, NO. OF DOUBLY OCCUPIED LEVELS = 4

 WARNING: INDO only performs single-point calculations
  SCF CRITERION =    0.1000E-09

 Summary of symmetry occupancy in each shell:

 SHELL     
    1    4
    v    2
 TOTAL   6




    ROOT NO.    1           2           3           4           5           6

           -41.11948   -19.57088   -14.85403   -12.83723     6.44104     7.94600
  
  
  S  O   1   0.82753    -0.00909    -0.40656     0.00000    -0.38285    -0.05694
 PX  O   1   0.10940     0.62531     0.49071     0.17302    -0.22115    -0.52667
 PY  O   1   0.13157    -0.47362     0.63402     0.26728    -0.42558     0.32224
 PZ  O   1  -0.05706     0.01941    -0.26833     0.94796     0.16036     0.00527
  
  S  H   2   0.38251     0.43392     0.24153    -0.00000     0.46727     0.62348
  
  S  H   3   0.36924    -0.44264     0.24819    -0.00000     0.61591    -0.47622


 Reference determinate nber   1 is ALPHA 1 -   4
 SINGLE excitations FROM orbs   3 to   4 INTO orbs   5 to   6
 

 CI excitations=    5:        =  5
 The lowest    5 spin-adapted configurations of multiplicity=  1
     sym   eV   cm**-1 -dets- dipole oscilator X FRAG ....Excitations named from first reference determinate
                       tot  #  Debye  strength
 
   1      0.000      0.  1  1  2.4849 0.000000 0  0 (     )->       )
   2     11.265  90862.  1  1  0.7211 0.032568 1  1 (   4 )->   5   )
   3     12.001  96799.  1  1  0.9638 0.000768 1  1 (   4 )->   6   )
   4     14.107 113782.  1  1  0.9301 0.039940 1  1 (   3 )->   5   )
   5     14.875 119979.  1  1  0.6787 0.207969 1  1 (   3 )->   6   )

 Depression of ground-state after CI=          0. cm**-1 Energy=  -466.6556679 eV
 Dipole moment=  1.441593  1.864040 -0.788697 tot=  2.484930 Debyes


  CI trans.  energy frequency wavelength oscillator ---------polarization---------    dipole   ------components----- 
 st.  symm.    eV      cm-1       nm      strength       x          y         z       moment     x       y       z 

   2     11.2543889    90773.    110.16  0.030908   0.173020   0.267283   0.947958  1.286163   1.109  -0.652  -0.019
   3     12.0125552    96888.    103.21  0.002506   0.173020   0.267283   0.947958  1.403740  -0.580   1.254  -0.248
   4     14.1020772   113741.     87.92  0.045442  -0.113379  -0.950670   0.288741  1.237672   0.502  -1.109   0.221
   5     14.8805859   120020.     83.32  0.202219   0.834553  -0.550919   0.003013  1.064918  -0.887   0.589  -0.004
 
 Polarizability (au  ) xx=    1.44 xy=   -0.85 yy=    1.12 xz=    0.08 yz=    0.00 zz=    0.56
 Polarizability (A**3) xx=    0.21 xy=   -0.13 yy=    0.17 xz=    0.01 yz=    0.00 zz=    0.08
 ***********************************
 ***********************************
 CI Matrix
  1.0000000000  0.0000000000  0.0000000000  0.0000000000  0.0000000000 
  0.0000000000 -0.9926577778  0.1209567533 -0.0000000000  0.0000000000 
  0.0000000000 -0.1209567533 -0.9926577778 -0.0000000000 -0.0000000000 
  0.0000000000  0.0000000000  0.0000000000 -0.9967195738  0.0809326332 
  0.0000000000 -0.0000000000 -0.0000000000  0.0809326332  0.9967195738 
 ***********************************
 ***********************************
 
 
 Major CI contributions to CI states
 
State    1  0.0000     CI coeff  CI percent
    Config       1   1.00000000  1.00000000
 Total coeff printed             1.00000000
  
State    2 11.2544     CI coeff  CI percent
    Config       2  -0.99265778  0.98536946
    Config       3   0.12095675  0.01463054
 Total coeff printed             1.00000000
  
State    3 12.0126     CI coeff  CI percent
    Config       2  -0.12095675  0.01463054
    Config       3  -0.99265778  0.98536946
 Total coeff printed             1.00000000
  
State    4 14.1021     CI coeff  CI percent
    Config       4  -0.99671957  0.99344991
    Config       5   0.08093263  0.00655009
 Total coeff printed             1.00000000
  
State    5 14.8806     CI coeff  CI percent
    Config       4   0.08093263  0.00655009
    Config       5   0.99671957  0.99344991
 Total coeff printed             1.00000000
  

 -------------------------------------------------------------------------------
 INDO C.I.=(4,2) AllVEC CHARGE=0 RELSCF=0.000001




     1SCF WAS SPECIFIED, SO BFGS WAS NOT USED                 
     SCF FIELD WAS ACHIEVED                                   


                              INDO CALCULATION
                                                       MOPAC2016 (Version: 20.173L)
                                                       Thu Jun  1 14:01:01 2023




          FINAL HEAT OF FORMATION =      -8368.73181 KCAL/MOL =  -35014.77390 KJ/MOL


          TOTAL ENERGY            =       -370.00430 EV
          ELECTRONIC ENERGY       =       -466.65567 EV  POINT GROUP:     C2v 
          CORE-CORE REPULSION     =         96.65137 EV
          COSMO AREA              =         42.45 SQUARE ANGSTROMS
          COSMO VOLUME            =         25.22 CUBIC ANGSTROMS

          IONIZATION POTENTIAL    =         12.837232 EV
          HOMO LUMO ENERGIES (EV) =        -12.837  6.441
          NO. OF FILLED LEVELS    =          4
          MOLECULAR WEIGHT        =         18.0152

          MOLECULAR DIMENSIONS (Angstroms)

            Atom       Atom       Distance
            H     3    H     2     1.48105
            H     2    O     1     0.60050
            O     1    H     3     0.00000


          SCF CALCULATIONS        =          1
 
          WALL-CLOCK TIME         =          0.016 SECONDS
          COMPUTATION TIME        =          0.010 SECONDS




   ATOM   CHEMICAL          X               Y               Z
  NUMBER   SYMBOL      (ANGSTROMS)     (ANGSTROMS)     (ANGSTROMS)
 
     1       O         -1.04980447  *   0.46451769  *   0.02136241  *
     2       H         -0.12529003  *   0.46682713  *  -0.14803031  *
     3       H         -1.29378343  *   1.37582435  *  -0.19105561  *

                             CARTESIAN COORDINATES

   1    O       -1.049804466     0.464517692     0.021362413
   2    H       -0.125290031     0.466827126    -0.148030314
   3    H       -1.293783427     1.375824352    -0.191055612


           Empirical Formula: H2 O  =     3 atoms



      MOLECULAR POINT GROUP   :   C2v 


                EIGENVECTORS  


   Root No.       1         2         3         4         5         6

                 1 a1      1 b2      2 a1      1 b1      3 a1      2 b2  

               -41.119   -19.571   -14.854   -12.837     6.441     7.946
  
  S   O    1    0.8275   -0.0091   -0.4066    0.0000   -0.3828   -0.0569
  Px  O    1    0.1094    0.6253    0.4907    0.1730   -0.2212   -0.5267
  Py  O    1    0.1316   -0.4736    0.6340    0.2673   -0.4256    0.3222
  Pz  O    1   -0.0571    0.0194   -0.2683    0.9480    0.1604    0.0053
  S   H    2    0.3825    0.4339    0.2415   -0.0000    0.4673    0.6235
  S   H    3    0.3692   -0.4426    0.2482   -0.0000    0.6159   -0.4762


              NET ATOMIC CHARGES AND DIPOLE CONTRIBUTIONS

  ATOM NO.   TYPE          CHARGE      No. of ELECS.   s-Pop       p-Pop       
    1          O          -0.426393        6.4264     1.70038     4.72602
    2          H           0.214127        0.7859     0.78587
    3          H           0.212266        0.7877     0.78773
 DIPOLE           X         Y         Z       TOTAL
 POINT-CHG.     0.702     0.932    -0.391     1.230
 HYBRID         0.740     0.933    -0.398     1.255
 SUM            1.442     1.864    -0.789     2.485


          ATOMIC ORBITAL ELECTRON POPULATIONS

     Atom    s        px        py        pz   
    1  O   1.70038   1.34743   1.43008   1.94851
    2  H   0.78587
    3  H   0.78773

 **********************
 *                    *
 * JOB ENDED NORMALLY *
 *                    *
 **********************



 TOTAL JOB TIME:             0.03 SECONDS

 == MOPAC DONE ==


          MOPAC Job: "./h2oTraj/h2o_49.mop" ended normally on Jun  1, 2023, at 14:01.

rm: cannot remove ‘./h2oTraj/h2o_49.cim’: No such file or directory
rm: cannot remove ‘./h2oTraj/h2o_49.end’: No such file or directory
rm: cannot remove ‘./h2oTraj/h2o_49.log’: No such file or directory
rm: cannot remove ‘./h2oTraj/h2o_49.temp’: No such file or directory
rm: cannot remove ‘./h2oTraj/h2o_49.ple’: No such file or directory
rm: cannot remove ‘./h2oTraj/h2o_49.sts’: No such file or directory
