 *******************************************************************************
 ** Site#:    0         For non-commercial use only    Version 20.173L 64BITS **
 *******************************************************************************
 ** Cite this program as: MOPAC2016, Version: 20.173L, James J. P. Stewart,   **
 ** Stewart Computational Chemistry, web-site: HTTP://OpenMOPAC.net.          **
 *******************************************************************************
 **                                                                           **
 **                                MOPAC2016                                  **
 **                                                                           **
 *******************************************************************************

                              INDO CALCULATION RESULTS

 *******************************************************************************
 *  CALCULATION DONE:                                Thu Jun  1 14:00:59 2023  *
 *  INDO       - The INDO Hamiltonian to be used
 *
 *
 *
 *                 CHARGE ON SYSTEM = 0
 *
 *
 *
 *  C.I.=(N,M) - 2 DOUBLY FILLED LEVELS USED IN A C.I. INVOLVING 4 M.O.'S
 *  T=         - A TIME OF 172800.0 SECONDS REQUESTED
 *  DUMP=N     - RESTART FILE WRITTEN EVERY 7200.0 SECONDS REQUESTED
 *  RELSCF     - DEFAULT SCF CRITERION MULTIPLIED BY 0.0000
 *              (DEFAULT SCF CRITERION = 0.00010)
 *  ALLVEC     - PRINT ALL EIGENVECTORS
 **********
 *  WARNING: Specified print options may not behave as expected with INDO
 **********
 *******************************************************************************
INDO C.I.=(4,2) AllVEC CHARGE=0 RELSCF=0.000001


   ATOM   CHEMICAL          X               Y               Z
  NUMBER   SYMBOL      (ANGSTROMS)     (ANGSTROMS)     (ANGSTROMS)
 
     1       O         -1.05362254  *   0.46687336  *   0.01969267  *
     2       H         -0.07347168  *   0.42712829  *  -0.16206454  *
     3       H         -1.28499743  *   1.37813167  *  -0.15051745  *
 


          CARTESIAN COORDINATES 

    NO.       ATOM           X           Y           Z

     1         O         -1.0536      0.4669      0.0197
     2         H         -0.0735      0.4271     -0.1621
     3         H         -1.2850      1.3781     -0.1505

           Empirical Formula: H2 O  =     3 atoms



      MOLECULAR POINT GROUP   :   C2v 


      RHF CALCULATION, NO. OF DOUBLY OCCUPIED LEVELS = 4

 WARNING: INDO only performs single-point calculations
  SCF CRITERION =    0.1000E-09

 Summary of symmetry occupancy in each shell:

 SHELL     
    1    4
    v    2
 TOTAL   6




    ROOT NO.    1           2           3           4           5           6

           -40.51974   -19.56192   -14.74426   -12.81520     5.98979     7.74720
  
  
  S  O   1   0.83433     0.01531    -0.39707     0.00000    -0.37442    -0.07619
 PX  O   1   0.09747     0.60411     0.51119     0.18646    -0.38655     0.42431
 PY  O   1   0.13564    -0.49452     0.62923     0.22594    -0.29335    -0.45168
 PZ  O   1  -0.05106    -0.00096    -0.24838     0.95613     0.14470     0.02399
  
  S  H   2   0.35902     0.44804     0.25403    -0.00000     0.63928    -0.44402
  
  S  H   3   0.38012    -0.43534     0.24262    -0.00000     0.44126     0.64219


 Reference determinate nber   1 is ALPHA 1 -   4
 SINGLE excitations FROM orbs   3 to   4 INTO orbs   5 to   6
 

 CI excitations=    5:        =  5
 The lowest    5 spin-adapted configurations of multiplicity=  1
     sym   eV   cm**-1 -dets- dipole oscilator X FRAG ....Excitations named from first reference determinate
                       tot  #  Debye  strength
 
   1      0.000      0.  1  1  2.4619 0.000000 0  0 (     )->       )
   2     10.827  87327.  1  1  0.9835 0.029938 1  1 (   4 )->   5   )
   3     11.814  95287.  1  1  1.1378 0.001352 1  1 (   4 )->   6   )
   4     13.643 110038.  1  1  1.1307 0.044638 1  1 (   3 )->   5   )
   5     14.609 117827.  1  1  0.9305 0.212404 1  1 (   3 )->   6   )

 Depression of ground-state after CI=          0. cm**-1 Energy=  -464.3455167 eV
 Dipole moment=  1.483433  1.827686 -0.721187 tot=  2.461934 Debyes


  CI trans.  energy frequency wavelength oscillator ---------polarization---------    dipole   ------components----- 
 st.  symm.    eV      cm-1       nm      strength       x          y         z       moment     x       y       z 

   2     10.8124438    87208.    114.67  0.028029   0.186464   0.225937   0.956130  1.542633  -1.109   1.072  -0.037
   3     11.8288360    95406.    104.81  0.003399   0.186463   0.225939   0.956129  1.605734   1.536  -0.423  -0.200
   4     13.6355272   109978.     90.93  0.052606  -0.943259  -0.231001   0.238541  1.485849  -1.416   0.412   0.179
   5     14.6161399   117887.     84.83  0.203944  -0.725296   0.688112  -0.021156  1.342905   1.011  -0.884   0.012
 
 Polarizability (au  ) xx=    1.70 xy=   -0.90 yy=    1.07 xz=   -0.00 yz=    0.06 zz=    0.57
 Polarizability (A**3) xx=    0.25 xy=   -0.13 yy=    0.16 xz=   -0.00 yz=    0.01 zz=    0.08
 ***********************************
 ***********************************
 CI Matrix
  1.0000000000  0.0000000000  0.0000000000  0.0000000000  0.0000000000 
  0.0000000000 -0.9927299645  0.1203628583 -0.0000000914  0.0000000022 
  0.0000000000 -0.1203628583 -0.9927299645 -0.0000001593 -0.0000001362 
  0.0000000000  0.0000001083  0.0000001348 -0.9961921297  0.0871850941 
  0.0000000000 -0.0000000237 -0.0000001478  0.0871850941  0.9961921297 
 ***********************************
 ***********************************
 
 
 Major CI contributions to CI states
 
State    1  0.0000     CI coeff  CI percent
    Config       1   1.00000000  1.00000000
 Total coeff printed             1.00000000
  
State    2 10.8124     CI coeff  CI percent
    Config       2  -0.99272996  0.98551278
    Config       3   0.12036286  0.01448722
 Total coeff printed             1.00000000
  
State    3 11.8288     CI coeff  CI percent
    Config       2  -0.12036286  0.01448722
    Config       3  -0.99272996  0.98551278
 Total coeff printed             1.00000000
  
State    4 13.6355     CI coeff  CI percent
    Config       4  -0.99619213  0.99239876
    Config       5   0.08718509  0.00760124
 Total coeff printed             1.00000000
  
State    5 14.6161     CI coeff  CI percent
    Config       4   0.08718509  0.00760124
    Config       5   0.99619213  0.99239876
 Total coeff printed             1.00000000
  

 -------------------------------------------------------------------------------
 INDO C.I.=(4,2) AllVEC CHARGE=0 RELSCF=0.000001




     1SCF WAS SPECIFIED, SO BFGS WAS NOT USED                 
     SCF FIELD WAS ACHIEVED                                   


                              INDO CALCULATION
                                                       MOPAC2016 (Version: 20.173L)
                                                       Thu Jun  1 14:01:00 2023




          FINAL HEAT OF FORMATION =      -8339.09111 KCAL/MOL =  -34890.75720 KJ/MOL


          TOTAL ENERGY            =       -368.71895 EV
          ELECTRONIC ENERGY       =       -464.34552 EV  POINT GROUP:     C2v 
          CORE-CORE REPULSION     =         95.62656 EV
          COSMO AREA              =         42.77 SQUARE ANGSTROMS
          COSMO VOLUME            =         25.45 CUBIC ANGSTROMS

          IONIZATION POTENTIAL    =         12.815197 EV
          HOMO LUMO ENERGIES (EV) =        -12.815  5.990
          NO. OF FILLED LEVELS    =          4
          MOLECULAR WEIGHT        =         18.0152

          MOLECULAR DIMENSIONS (Angstroms)

            Atom       Atom       Distance
            H     3    H     2     1.54024
            O     1    H     3     0.60025
            H     2    O     1     0.00000


          SCF CALCULATIONS        =          1
 
          WALL-CLOCK TIME         =          0.520 SECONDS
          COMPUTATION TIME        =          0.010 SECONDS




   ATOM   CHEMICAL          X               Y               Z
  NUMBER   SYMBOL      (ANGSTROMS)     (ANGSTROMS)     (ANGSTROMS)
 
     1       O         -1.05362254  *   0.46687336  *   0.01969267  *
     2       H         -0.07347168  *   0.42712829  *  -0.16206454  *
     3       H         -1.28499743  *   1.37813167  *  -0.15051745  *

                             CARTESIAN COORDINATES

   1    O       -1.053622540     0.466873358     0.019692665
   2    H       -0.073471683     0.427128288    -0.162064537
   3    H       -1.284997434     1.378131666    -0.150517446


           Empirical Formula: H2 O  =     3 atoms



      MOLECULAR POINT GROUP   :   C2v 


                EIGENVECTORS  


   Root No.       1         2         3         4         5         6

                 1 a1      1 b2      2 a1      1 b1      3 a1      2 b2  

               -40.520   -19.562   -14.744   -12.815     5.990     7.747
  
  S   O    1    0.8343    0.0153   -0.3971    0.0000   -0.3744   -0.0762
  Px  O    1    0.0975    0.6041    0.5112    0.1865   -0.3865    0.4243
  Py  O    1    0.1356   -0.4945    0.6292    0.2259   -0.2933   -0.4517
  Pz  O    1   -0.0511   -0.0010   -0.2484    0.9561    0.1447    0.0240
  S   H    2    0.3590    0.4480    0.2540   -0.0000    0.6393   -0.4440
  S   H    3    0.3801   -0.4353    0.2426   -0.0000    0.4413    0.6422


              NET ATOMIC CHARGES AND DIPOLE CONTRIBUTIONS

  ATOM NO.   TYPE          CHARGE      No. of ELECS.   s-Pop       p-Pop       
    1          O          -0.425915        6.4259     1.70800     4.71791
    2          H           0.211674        0.7883     0.78833
    3          H           0.214241        0.7858     0.78576
 DIPOLE           X         Y         Z       TOTAL
 POINT-CHG.     0.758     0.897    -0.360     1.229
 HYBRID         0.725     0.930    -0.361     1.234
 SUM            1.484     1.828    -0.721     2.462


          ATOMIC ORBITAL ELECTRON POPULATIONS

     Atom    s        px        py        pz   
    1  O   1.70800   1.34108   1.41986   1.95697
    2  H   0.78833
    3  H   0.78576

 **********************
 *                    *
 * JOB ENDED NORMALLY *
 *                    *
 **********************



 TOTAL JOB TIME:             1.05 SECONDS

 == MOPAC DONE ==


          MOPAC Job: "./h2oTraj/h2o_41.mop" ended normally on Jun  1, 2023, at 14:01.

rm: cannot remove ‘./h2oTraj/h2o_41.cim’: No such file or directory
rm: cannot remove ‘./h2oTraj/h2o_41.end’: No such file or directory
rm: cannot remove ‘./h2oTraj/h2o_41.log’: No such file or directory
rm: cannot remove ‘./h2oTraj/h2o_41.temp’: No such file or directory
rm: cannot remove ‘./h2oTraj/h2o_41.ple’: No such file or directory
rm: cannot remove ‘./h2oTraj/h2o_41.sts’: No such file or directory
