 *******************************************************************************
 ** Site#:    0         For non-commercial use only    Version 20.173L 64BITS **
 *******************************************************************************
 ** Cite this program as: MOPAC2016, Version: 20.173L, James J. P. Stewart,   **
 ** Stewart Computational Chemistry, web-site: HTTP://OpenMOPAC.net.          **
 *******************************************************************************
 **                                                                           **
 **                                MOPAC2016                                  **
 **                                                                           **
 *******************************************************************************

                              INDO CALCULATION RESULTS

 *******************************************************************************
 *  CALCULATION DONE:                                Thu Jun  1 14:00:56 2023  *
 *  INDO       - The INDO Hamiltonian to be used
 *
 *
 *
 *                 CHARGE ON SYSTEM = 0
 *
 *
 *
 *  C.I.=(N,M) - 2 DOUBLY FILLED LEVELS USED IN A C.I. INVOLVING 4 M.O.'S
 *  T=         - A TIME OF 172800.0 SECONDS REQUESTED
 *  DUMP=N     - RESTART FILE WRITTEN EVERY 7200.0 SECONDS REQUESTED
 *  RELSCF     - DEFAULT SCF CRITERION MULTIPLIED BY 0.0000
 *              (DEFAULT SCF CRITERION = 0.00010)
 *  ALLVEC     - PRINT ALL EIGENVECTORS
 **********
 *  WARNING: Specified print options may not behave as expected with INDO
 **********
 *******************************************************************************
INDO C.I.=(4,2) AllVEC CHARGE=0 RELSCF=0.000001


   ATOM   CHEMICAL          X               Y               Z
  NUMBER   SYMBOL      (ANGSTROMS)     (ANGSTROMS)     (ANGSTROMS)
 
     1       O         -1.05242382  *   0.46333664  *   0.00302781  *
     2       H         -0.06822921  *   0.48112559  *  -0.00758602  *
     3       H         -1.30926727  *   1.38027282  *  -0.04047447  *
 


          CARTESIAN COORDINATES 

    NO.       ATOM           X           Y           Z

     1         O         -1.0524      0.4633      0.0030
     2         H         -0.0682      0.4811     -0.0076
     3         H         -1.3093      1.3803     -0.0405

           Empirical Formula: H2 O  =     3 atoms



      MOLECULAR POINT GROUP   :   C2v 


      RHF CALCULATION, NO. OF DOUBLY OCCUPIED LEVELS = 4

 WARNING: INDO only performs single-point calculations
  SCF CRITERION =    0.1000E-09

 Summary of symmetry occupancy in each shell:

 SHELL     
    1    4
    v    2
 TOTAL   6




    ROOT NO.    1           2           3           4           5           6

           -40.67609   -19.65722   -14.71914   -12.81542     6.11316     7.85283
  
  
  S  O   1   0.83311     0.01110    -0.39641     0.00000    -0.38133    -0.05706
 PX  O   1   0.09840     0.62482     0.50776     0.00986    -0.36325     0.45831
 PY  O   1   0.14396    -0.46749     0.68050     0.05014    -0.34354    -0.42085
 PZ  O   1  -0.00820     0.01730    -0.03918     0.99869     0.02084     0.01660
  
  S  H   2   0.36324     0.44676     0.24939    -0.00000     0.61819    -0.47340
  
  S  H   3   0.37883    -0.43707     0.24131    -0.00000     0.47120     0.62065


 Reference determinate nber   1 is ALPHA 1 -   4
 SINGLE excitations FROM orbs   3 to   4 INTO orbs   5 to   6
 

 CI excitations=    5:        =  5
 The lowest    5 spin-adapted configurations of multiplicity=  1
     sym   eV   cm**-1 -dets- dipole oscilator X FRAG ....Excitations named from first reference determinate
                       tot  #  Debye  strength
 
   1      0.000      0.  1  1  2.4515 0.000000 0  0 (     )->       )
   2     10.962  88411.  1  1  0.7386 0.031438 1  1 (   4 )->   5   )
   3     11.896  95948.  1  1  0.9800 0.000764 1  1 (   4 )->   6   )
   4     13.709 110574.  1  1  0.9448 0.037255 1  1 (   3 )->   5   )
   5     14.656 118210.  1  1  0.6945 0.211825 1  1 (   3 )->   6   )

 Depression of ground-state after CI=          0. cm**-1 Energy=  -465.0869489 eV
 Dipole moment=  1.464862  1.962492 -0.113004 tot=  2.451523 Debyes


  CI trans.  energy frequency wavelength oscillator ---------polarization---------    dipole   ------components----- 
 st.  symm.    eV      cm-1       nm      strength       x          y         z       moment     x       y       z 

   2     10.9523723    88337.    113.20  0.030199   0.009864   0.050144   0.998693  1.216313  -0.889   0.829  -0.033
   3     11.9052256    96022.    104.14  0.002083   0.009862   0.050147   0.998693  1.346079   1.340  -0.130  -0.007
   4     13.7052014   110540.     90.46  0.041832  -0.913561  -0.405639   0.029390  1.206621  -1.200   0.126   0.006
   5     14.6603644   118244.     84.57  0.206978  -0.766844   0.641360  -0.024629  1.024525   0.797  -0.644   0.024
 
 Polarizability (au  ) xx=    1.67 xy=   -0.87 yy=    0.96 xz=    0.03 yz=   -0.01 zz=    0.59
 Polarizability (A**3) xx=    0.25 xy=   -0.13 yy=    0.14 xz=    0.00 yz=   -0.00 zz=    0.09
 ***********************************
 ***********************************
 CI Matrix
  1.0000000000  0.0000000000  0.0000000000  0.0000000000  0.0000000000 
  0.0000000000 -0.9951793075  0.0980721468 -0.0000001080  0.0000000032 
  0.0000000000 -0.0980721468 -0.9951793075 -0.0000001073 -0.0000001288 
  0.0000000000  0.0000001171  0.0000000874 -0.9977747543  0.0666748809 
  0.0000000000 -0.0000000173 -0.0000001346  0.0666748809  0.9977747543 
 ***********************************
 ***********************************
 
 
 Major CI contributions to CI states
 
State    1  0.0000     CI coeff  CI percent
    Config       1   1.00000000  1.00000000
 Total coeff printed             1.00000000
  
State    2 10.9524     CI coeff  CI percent
    Config       2  -0.99517931  0.99038185
    Config       3   0.09807215  0.00961815
 Total coeff printed             1.00000000
  
State    3 11.9052     CI coeff  CI percent
    Config       2  -0.09807215  0.00961815
    Config       3  -0.99517931  0.99038185
 Total coeff printed             1.00000000
  
State    4 13.7052     CI coeff  CI percent
    Config       4  -0.99777475  0.99555446
    Config       5   0.06667488  0.00444554
 Total coeff printed             1.00000000
  
State    5 14.6604     CI coeff  CI percent
    Config       4   0.06667488  0.00444554
    Config       5   0.99777475  0.99555446
 Total coeff printed             1.00000000
  

 -------------------------------------------------------------------------------
 INDO C.I.=(4,2) AllVEC CHARGE=0 RELSCF=0.000001




     1SCF WAS SPECIFIED, SO BFGS WAS NOT USED                 
     SCF FIELD WAS ACHIEVED                                   


                              INDO CALCULATION
                                                       MOPAC2016 (Version: 20.173L)
                                                       Thu Jun  1 14:00:56 2023




          FINAL HEAT OF FORMATION =      -8348.97695 KCAL/MOL =  -34932.11955 KJ/MOL


          TOTAL ENERGY            =       -369.14764 EV
          ELECTRONIC ENERGY       =       -465.08695 EV  POINT GROUP:     C2v 
          CORE-CORE REPULSION     =         95.93930 EV
          COSMO AREA              =         42.68 SQUARE ANGSTROMS
          COSMO VOLUME            =         25.36 CUBIC ANGSTROMS

          IONIZATION POTENTIAL    =         12.815420 EV
          HOMO LUMO ENERGIES (EV) =        -12.815  6.113
          NO. OF FILLED LEVELS    =          4
          MOLECULAR WEIGHT        =         18.0152

          MOLECULAR DIMENSIONS (Angstroms)

            Atom       Atom       Distance
            H     3    H     2     1.53288
            H     2    O     1     0.59248
            H     2    O     1     0.00000


          SCF CALCULATIONS        =          1
 
          WALL-CLOCK TIME         =          0.016 SECONDS
          COMPUTATION TIME        =          0.010 SECONDS




   ATOM   CHEMICAL          X               Y               Z
  NUMBER   SYMBOL      (ANGSTROMS)     (ANGSTROMS)     (ANGSTROMS)
 
     1       O         -1.05242382  *   0.46333664  *   0.00302781  *
     2       H         -0.06822921  *   0.48112559  *  -0.00758602  *
     3       H         -1.30926727  *   1.38027282  *  -0.04047447  *

                             CARTESIAN COORDINATES

   1    O       -1.052423816     0.463336635     0.003027811
   2    H       -0.068229208     0.481125588    -0.007586019
   3    H       -1.309267266     1.380272820    -0.040474473


           Empirical Formula: H2 O  =     3 atoms



      MOLECULAR POINT GROUP   :   C2v 


                EIGENVECTORS  


   Root No.       1         2         3         4         5         6

                 1 a1      1 b2      2 a1      1 b1      3 a1      2 b2  

               -40.676   -19.657   -14.719   -12.815     6.113     7.853
  
  S   O    1    0.8331    0.0111   -0.3964    0.0000   -0.3813   -0.0571
  Px  O    1    0.0984    0.6248    0.5078    0.0099   -0.3632    0.4583
  Py  O    1    0.1440   -0.4675    0.6805    0.0501   -0.3435   -0.4208
  Pz  O    1   -0.0082    0.0173   -0.0392    0.9987    0.0208    0.0166
  S   H    2    0.3632    0.4468    0.2494   -0.0000    0.6182   -0.4734
  S   H    3    0.3788   -0.4371    0.2413   -0.0000    0.4712    0.6206


              NET ATOMIC CHARGES AND DIPOLE CONTRIBUTIONS

  ATOM NO.   TYPE          CHARGE      No. of ELECS.   s-Pop       p-Pop       
    1          O          -0.426996        6.4270     1.70267     4.72433
    2          H           0.212535        0.7875     0.78747
    3          H           0.214461        0.7855     0.78554
 DIPOLE           X         Y         Z       TOTAL
 POINT-CHG.     0.740     0.963    -0.056     1.216
 HYBRID         0.725     1.000    -0.057     1.236
 SUM            1.465     1.963    -0.113     2.452


          ATOMIC ORBITAL ELECTRON POPULATIONS

     Atom    s        px        py        pz   
    1  O   1.70267   1.31601   1.40974   1.99858
    2  H   0.78747
    3  H   0.78554

 **********************
 *                    *
 * JOB ENDED NORMALLY *
 *                    *
 **********************



 TOTAL JOB TIME:             0.04 SECONDS

 == MOPAC DONE ==


          MOPAC Job: "./h2oTraj/h2o_3.mop" ended normally on Jun  1, 2023, at 14:00.

rm: cannot remove ‘./h2oTraj/h2o_3.cim’: No such file or directory
rm: cannot remove ‘./h2oTraj/h2o_3.end’: No such file or directory
rm: cannot remove ‘./h2oTraj/h2o_3.log’: No such file or directory
rm: cannot remove ‘./h2oTraj/h2o_3.temp’: No such file or directory
rm: cannot remove ‘./h2oTraj/h2o_3.ple’: No such file or directory
rm: cannot remove ‘./h2oTraj/h2o_3.sts’: No such file or directory
