 *******************************************************************************
 ** Site#:    0         For non-commercial use only    Version 20.173L 64BITS **
 *******************************************************************************
 ** Cite this program as: MOPAC2016, Version: 20.173L, James J. P. Stewart,   **
 ** Stewart Computational Chemistry, web-site: HTTP://OpenMOPAC.net.          **
 *******************************************************************************
 **                                                                           **
 **                                MOPAC2016                                  **
 **                                                                           **
 *******************************************************************************

                              INDO CALCULATION RESULTS

 *******************************************************************************
 *  CALCULATION DONE:                                Thu Jun  1 14:01:02 2023  *
 *  INDO       - The INDO Hamiltonian to be used
 *
 *
 *
 *                 CHARGE ON SYSTEM = 0
 *
 *
 *
 *  C.I.=(N,M) - 2 DOUBLY FILLED LEVELS USED IN A C.I. INVOLVING 4 M.O.'S
 *  T=         - A TIME OF 172800.0 SECONDS REQUESTED
 *  DUMP=N     - RESTART FILE WRITTEN EVERY 7200.0 SECONDS REQUESTED
 *  RELSCF     - DEFAULT SCF CRITERION MULTIPLIED BY 0.0000
 *              (DEFAULT SCF CRITERION = 0.00010)
 *  ALLVEC     - PRINT ALL EIGENVECTORS
 **********
 *  WARNING: Specified print options may not behave as expected with INDO
 **********
 *******************************************************************************
INDO C.I.=(4,2) AllVEC CHARGE=0 RELSCF=0.000001


   ATOM   CHEMICAL          X               Y               Z
  NUMBER   SYMBOL      (ANGSTROMS)     (ANGSTROMS)     (ANGSTROMS)
 
     1       O         -1.05494354  *   0.47000407  *   0.02844455  *
     2       H         -0.11723348  *   0.38062166  *  -0.16899952  *
     3       H         -1.22026733  *   1.37494438  *  -0.28250132  *
 


          CARTESIAN COORDINATES 

    NO.       ATOM           X           Y           Z

     1         O         -1.0549      0.4700      0.0284
     2         H         -0.1172      0.3806     -0.1690
     3         H         -1.2203      1.3749     -0.2825

           Empirical Formula: H2 O  =     3 atoms



      MOLECULAR POINT GROUP   :   C2v 


      RHF CALCULATION, NO. OF DOUBLY OCCUPIED LEVELS = 4

 WARNING: INDO only performs single-point calculations
  SCF CRITERION =    0.1000E-09

 Summary of symmetry occupancy in each shell:

 SHELL     
    1    4
    v    2
 TOTAL   6




    ROOT NO.    1           2           3           4           5           6

           -40.84523   -19.39239   -14.91738   -12.83781     6.30563     7.68235
  
  
  S  O   1   0.82941    -0.00300    -0.40895     0.00000    -0.38007    -0.01917
 PX  O   1   0.11540     0.58395     0.53013     0.22488    -0.29929    -0.47382
 PY  O   1   0.11768    -0.52199     0.55347     0.35313    -0.35457     0.39614
 PZ  O   1  -0.07434     0.05838    -0.34649     0.90815     0.21198    -0.03671
  
  S  H   2   0.37586     0.43635     0.24919    -0.00000     0.51939     0.58006
  
  S  H   3   0.37163    -0.43898     0.25149    -0.00000     0.57057    -0.52952


 Reference determinate nber   1 is ALPHA 1 -   4
 SINGLE excitations FROM orbs   3 to   4 INTO orbs   5 to   6
 

 CI excitations=    5:        =  5
 The lowest    5 spin-adapted configurations of multiplicity=  1
     sym   eV   cm**-1 -dets- dipole oscilator X FRAG ....Excitations named from first reference determinate
                       tot  #  Debye  strength
 
   1      0.000      0.  1  1  2.5078 0.000000 0  0 (     )->       )
   2     11.131  89774.  1  1  0.2727 0.031712 1  1 (   4 )->   5   )
   3     11.760  94850.  1  1  0.7182 0.000085 1  1 (   4 )->   6   )
   4     14.095 113686.  1  1  0.6626 0.042836 1  1 (   3 )->   5   )
   5     14.730 118802.  1  1  0.2419 0.219287 1  1 (   3 )->   6   )

 Depression of ground-state after CI=          0. cm**-1 Energy=  -465.3724665 eV
 Dipole moment=  1.580904  1.649962 -1.033055 tot=  2.507755 Debyes


  CI trans.  energy frequency wavelength oscillator ---------polarization---------    dipole   ------components----- 
 st.  symm.    eV      cm-1       nm      strength       x          y         z       moment     x       y       z 

   2     11.1291286    89763.    111.40  0.031485   0.224879   0.353130   0.908145  0.500041   0.438  -0.241  -0.015
   3     11.7613120    94862.    105.42  0.000321   0.224879   0.353130   0.908145  0.824013   0.079   0.758  -0.314
   4     14.0944819   113680.     87.97  0.043707  -0.476873  -0.772884   0.418620  0.741829  -0.081  -0.680   0.285
   5     14.7303067   118808.     84.17  0.218386   0.761042  -0.645673   0.062616  0.413663  -0.342   0.233  -0.006
 
 Polarizability (au  ) xx=    1.43 xy=   -0.87 yy=    1.30 xz=    0.13 yz=   -0.07 zz=    0.56
 Polarizability (A**3) xx=    0.21 xy=   -0.13 yy=    0.19 xz=    0.02 yz=   -0.01 zz=    0.08
 ***********************************
 ***********************************
 CI Matrix
  1.0000000000  0.0000000000  0.0000000000  0.0000000000  0.0000000000 
  0.0000000000 -0.9988691822  0.0475432102 -0.0000000000  0.0000000000 
  0.0000000000 -0.0475432102 -0.9988691822 -0.0000000000 -0.0000000000 
  0.0000000000  0.0000000000  0.0000000000 -0.9994045026  0.0345056545 
  0.0000000000 -0.0000000000 -0.0000000000  0.0345056545  0.9994045026 
 ***********************************
 ***********************************
 
 
 Major CI contributions to CI states
 
State    1  0.0000     CI coeff  CI percent
    Config       1   1.00000000  1.00000000
 Total coeff printed             1.00000000
  
State    2 11.1291     CI coeff  CI percent
    Config       2  -0.99886918  0.99773964
    Config       3   0.04754321  0.00226036
 Total coeff printed             1.00000000
  
State    3 11.7613     CI coeff  CI percent
    Config       2  -0.04754321  0.00226036
    Config       3  -0.99886918  0.99773964
 Total coeff printed             1.00000000
  
State    4 14.0945     CI coeff  CI percent
    Config       4  -0.99940450  0.99880936
 Total coeff printed             0.99880936
  
State    5 14.7303     CI coeff  CI percent
    Config       5   0.99940450  0.99880936
 Total coeff printed             0.99880936
  

 -------------------------------------------------------------------------------
 INDO C.I.=(4,2) AllVEC CHARGE=0 RELSCF=0.000001




     1SCF WAS SPECIFIED, SO BFGS WAS NOT USED                 
     SCF FIELD WAS ACHIEVED                                   


                              INDO CALCULATION
                                                       MOPAC2016 (Version: 20.173L)
                                                       Thu Jun  1 14:01:02 2023




          FINAL HEAT OF FORMATION =      -8351.65294 KCAL/MOL =  -34943.31591 KJ/MOL


          TOTAL ENERGY            =       -369.26369 EV
          ELECTRONIC ENERGY       =       -465.37247 EV  POINT GROUP:     C2v 
          CORE-CORE REPULSION     =         96.10878 EV
          COSMO AREA              =         42.58 SQUARE ANGSTROMS
          COSMO VOLUME            =         25.34 CUBIC ANGSTROMS

          IONIZATION POTENTIAL    =         12.837812 EV
          HOMO LUMO ENERGIES (EV) =        -12.838  6.306
          NO. OF FILLED LEVELS    =          4
          MOLECULAR WEIGHT        =         18.0152

          MOLECULAR DIMENSIONS (Angstroms)

            Atom       Atom       Distance
            H     3    H     2     1.48938
            O     1    H     3     0.61645
            H     2    H     3     0.00000


          SCF CALCULATIONS        =          1
 
          WALL-CLOCK TIME         =          0.016 SECONDS
          COMPUTATION TIME        =          0.011 SECONDS




   ATOM   CHEMICAL          X               Y               Z
  NUMBER   SYMBOL      (ANGSTROMS)     (ANGSTROMS)     (ANGSTROMS)
 
     1       O         -1.05494354  *   0.47000407  *   0.02844455  *
     2       H         -0.11723348  *   0.38062166  *  -0.16899952  *
     3       H         -1.22026733  *   1.37494438  *  -0.28250132  *

                             CARTESIAN COORDINATES

   1    O       -1.054943543     0.470004074     0.028444553
   2    H       -0.117233478     0.380621664    -0.168999518
   3    H       -1.220267329     1.374944384    -0.282501322


           Empirical Formula: H2 O  =     3 atoms



      MOLECULAR POINT GROUP   :   C2v 


                EIGENVECTORS  


   Root No.       1         2         3         4         5         6

                 1 a1      1 b2      2 a1      1 b1      3 a1      2 b2  

               -40.845   -19.392   -14.917   -12.838     6.306     7.682
  
  S   O    1    0.8294   -0.0030   -0.4090    0.0000   -0.3801   -0.0192
  Px  O    1    0.1154    0.5840    0.5301    0.2249   -0.2993   -0.4738
  Py  O    1    0.1177   -0.5220    0.5535    0.3531   -0.3546    0.3961
  Pz  O    1   -0.0743    0.0584   -0.3465    0.9081    0.2120   -0.0367
  S   H    2    0.3759    0.4364    0.2492   -0.0000    0.5194    0.5801
  S   H    3    0.3716   -0.4390    0.2515   -0.0000    0.5706   -0.5295


              NET ATOMIC CHARGES AND DIPOLE CONTRIBUTIONS

  ATOM NO.   TYPE          CHARGE      No. of ELECS.   s-Pop       p-Pop       
    1          O          -0.424347        6.4243     1.71037     4.71398
    2          H           0.212460        0.7875     0.78754
    3          H           0.211886        0.7881     0.78811
 DIPOLE           X         Y         Z       TOTAL
 POINT-CHG.     0.789     0.830    -0.518     1.257
 HYBRID         0.792     0.820    -0.515     1.251
 SUM            1.581     1.650    -1.033     2.508


          ATOMIC ORBITAL ELECTRON POPULATIONS

     Atom    s        px        py        pz   
    1  O   1.71037   1.37184   1.43471   1.90743
    2  H   0.78754
    3  H   0.78811

 **********************
 *                    *
 * JOB ENDED NORMALLY *
 *                    *
 **********************



 TOTAL JOB TIME:             0.04 SECONDS

 == MOPAC DONE ==


          MOPAC Job: "./h2oTraj/h2o_71.mop" ended normally on Jun  1, 2023, at 14:01.

rm: cannot remove ‘./h2oTraj/h2o_71.cim’: No such file or directory
rm: cannot remove ‘./h2oTraj/h2o_71.end’: No such file or directory
rm: cannot remove ‘./h2oTraj/h2o_71.log’: No such file or directory
rm: cannot remove ‘./h2oTraj/h2o_71.temp’: No such file or directory
rm: cannot remove ‘./h2oTraj/h2o_71.ple’: No such file or directory
rm: cannot remove ‘./h2oTraj/h2o_71.sts’: No such file or directory
