 *******************************************************************************
 ** Site#:    0         For non-commercial use only    Version 20.173L 64BITS **
 *******************************************************************************
 ** Cite this program as: MOPAC2016, Version: 20.173L, James J. P. Stewart,   **
 ** Stewart Computational Chemistry, web-site: HTTP://OpenMOPAC.net.          **
 *******************************************************************************
 **                                                                           **
 **                                MOPAC2016                                  **
 **                                                                           **
 *******************************************************************************

                              INDO CALCULATION RESULTS

 *******************************************************************************
 *  CALCULATION DONE:                                Thu Jun  1 14:00:57 2023  *
 *  INDO       - The INDO Hamiltonian to be used
 *
 *
 *
 *                 CHARGE ON SYSTEM = 0
 *
 *
 *
 *  C.I.=(N,M) - 2 DOUBLY FILLED LEVELS USED IN A C.I. INVOLVING 4 M.O.'S
 *  T=         - A TIME OF 172800.0 SECONDS REQUESTED
 *  DUMP=N     - RESTART FILE WRITTEN EVERY 7200.0 SECONDS REQUESTED
 *  RELSCF     - DEFAULT SCF CRITERION MULTIPLIED BY 0.0000
 *              (DEFAULT SCF CRITERION = 0.00010)
 *  ALLVEC     - PRINT ALL EIGENVECTORS
 **********
 *  WARNING: Specified print options may not behave as expected with INDO
 **********
 *******************************************************************************
INDO C.I.=(4,2) AllVEC CHARGE=0 RELSCF=0.000001


   ATOM   CHEMICAL          X               Y               Z
  NUMBER   SYMBOL      (ANGSTROMS)     (ANGSTROMS)     (ANGSTROMS)
 
     1       O         -1.05162092  *   0.46524663  *   0.01462391  *
     2       H         -0.09748423  *   0.45564602  *  -0.12481925  *
     3       H         -1.29275661  *   1.37543498  *  -0.10730629  *
 


          CARTESIAN COORDINATES 

    NO.       ATOM           X           Y           Z

     1         O         -1.0516      0.4652      0.0146
     2         H         -0.0975      0.4556     -0.1248
     3         H         -1.2928      1.3754     -0.1073

           Empirical Formula: H2 O  =     3 atoms



      MOLECULAR POINT GROUP   :   C2v 


      RHF CALCULATION, NO. OF DOUBLY OCCUPIED LEVELS = 4

 WARNING: INDO only performs single-point calculations
  SCF CRITERION =    0.1000E-09

 Summary of symmetry occupancy in each shell:

 SHELL     
    1    4
    v    2
 TOTAL   6




    ROOT NO.    1           2           3           4           5           6

           -40.96533   -19.70776   -14.74611   -12.82396     6.33455     7.97388
  
  
  S  O   1   0.83014     0.00510    -0.39941     0.00000    -0.38792    -0.02885
 PX  O   1   0.10280     0.61624     0.50789     0.14420    -0.32987     0.47130
 PY  O   1   0.13808    -0.48114     0.65509     0.16882    -0.35505    -0.40711
 PZ  O   1  -0.03911    -0.00783    -0.18853     0.97504     0.11026     0.00079
  
  S  H   2   0.37027     0.44322     0.24455    -0.00000     0.58466    -0.51461
  
  S  H   3   0.37763    -0.43843     0.24090    -0.00000     0.51055     0.58862


 Reference determinate nber   1 is ALPHA 1 -   4
 SINGLE excitations FROM orbs   3 to   4 INTO orbs   5 to   6
 

 CI excitations=    5:        =  5
 The lowest    5 spin-adapted configurations of multiplicity=  1
     sym   eV   cm**-1 -dets- dipole oscilator X FRAG ....Excitations named from first reference determinate
                       tot  #  Debye  strength
 
   1      0.000      0.  1  1  2.4545 0.000000 0  0 (     )->       )
   2     11.185  90215.  1  1  0.3862 0.033198 1  1 (   4 )->   5   )
   3     12.001  96795.  1  1  0.7986 0.000197 1  1 (   4 )->   6   )
   4     13.909 112186.  1  1  0.7252 0.031986 1  1 (   3 )->   5   )
   5     14.773 119153.  1  1  0.3490 0.210239 1  1 (   3 )->   6   )

 Depression of ground-state after CI=          0. cm**-1 Energy=  -466.2690273 eV
 Dipole moment=  1.467032  1.890994 -0.544366 tot=  2.454460 Debyes


  CI trans.  energy frequency wavelength oscillator ---------polarization---------    dipole   ------components----- 
 st.  symm.    eV      cm-1       nm      strength       x          y         z       moment     x       y       z 

   2     11.1823828    90192.    110.87  0.032793   0.144197   0.168820   0.975042  0.672550  -0.440   0.508  -0.023
   3     12.0037569    96817.    103.29  0.000623   0.144197   0.168820   0.975042  0.957054   0.928   0.165  -0.166
   4     13.9081264   112177.     89.14  0.033270  -0.795361  -0.566457   0.215702  0.831286  -0.804  -0.152   0.145
   5     14.7742533   119163.     83.92  0.208889  -0.770808   0.637057   0.003692  0.536632   0.398  -0.360   0.004
 
 Polarizability (au  ) xx=    1.52 xy=   -0.86 yy=    1.00 xz=    0.01 yz=    0.06 zz=    0.58
 Polarizability (A**3) xx=    0.22 xy=   -0.13 yy=    0.15 xz=    0.00 yz=    0.01 zz=    0.09
 ***********************************
 ***********************************
 CI Matrix
  1.0000000000  0.0000000000  0.0000000000  0.0000000000  0.0000000000 
  0.0000000000 -0.9983144901  0.0580360142 -0.0000000000  0.0000000000 
  0.0000000000 -0.0580360142 -0.9983144901  0.0000000000 -0.0000000000 
  0.0000000000  0.0000000000 -0.0000000000 -0.9993194062  0.0368879979 
  0.0000000000  0.0000000000 -0.0000000000  0.0368879979  0.9993194062 
 ***********************************
 ***********************************
 
 
 Major CI contributions to CI states
 
State    1  0.0000     CI coeff  CI percent
    Config       1   1.00000000  1.00000000
 Total coeff printed             1.00000000
  
State    2 11.1824     CI coeff  CI percent
    Config       2  -0.99831449  0.99663182
    Config       3   0.05803601  0.00336818
 Total coeff printed             1.00000000
  
State    3 12.0038     CI coeff  CI percent
    Config       2  -0.05803601  0.00336818
    Config       3  -0.99831449  0.99663182
 Total coeff printed             1.00000000
  
State    4 13.9081     CI coeff  CI percent
    Config       4  -0.99931941  0.99863928
 Total coeff printed             0.99863928
  
State    5 14.7743     CI coeff  CI percent
    Config       5   0.99931941  0.99863928
 Total coeff printed             0.99863928
  

 -------------------------------------------------------------------------------
 INDO C.I.=(4,2) AllVEC CHARGE=0 RELSCF=0.000001




     1SCF WAS SPECIFIED, SO BFGS WAS NOT USED                 
     SCF FIELD WAS ACHIEVED                                   


                              INDO CALCULATION
                                                       MOPAC2016 (Version: 20.173L)
                                                       Thu Jun  1 14:00:57 2023




          FINAL HEAT OF FORMATION =      -8364.32866 KCAL/MOL =  -34996.35110 KJ/MOL


          TOTAL ENERGY            =       -369.81336 EV
          ELECTRONIC ENERGY       =       -466.26903 EV  POINT GROUP:     C2v 
          CORE-CORE REPULSION     =         96.45567 EV
          COSMO AREA              =         42.54 SQUARE ANGSTROMS
          COSMO VOLUME            =         25.25 CUBIC ANGSTROMS

          IONIZATION POTENTIAL    =         12.823960 EV
          HOMO LUMO ENERGIES (EV) =        -12.824  6.335
          NO. OF FILLED LEVELS    =          4
          MOLECULAR WEIGHT        =         18.0152

          MOLECULAR DIMENSIONS (Angstroms)

            Atom       Atom       Distance
            H     3    H     2     1.50831
            H     2    O     1     0.58894
            O     1    H     3     0.00000


          SCF CALCULATIONS        =          1
 
          WALL-CLOCK TIME         =          0.016 SECONDS
          COMPUTATION TIME        =          0.010 SECONDS




   ATOM   CHEMICAL          X               Y               Z
  NUMBER   SYMBOL      (ANGSTROMS)     (ANGSTROMS)     (ANGSTROMS)
 
     1       O         -1.05162092  *   0.46524663  *   0.01462391  *
     2       H         -0.09748423  *   0.45564602  *  -0.12481925  *
     3       H         -1.29275661  *   1.37543498  *  -0.10730629  *

                             CARTESIAN COORDINATES

   1    O       -1.051620921     0.465246633     0.014623909
   2    H       -0.097484230     0.455646015    -0.124819253
   3    H       -1.292756611     1.375434976    -0.107306290


           Empirical Formula: H2 O  =     3 atoms



      MOLECULAR POINT GROUP   :   C2v 


                EIGENVECTORS  


   Root No.       1         2         3         4         5         6

                 1 a1      1 b2      2 a1      1 b1      3 a1      2 b2  

               -40.965   -19.708   -14.746   -12.824     6.335     7.974
  
  S   O    1    0.8301    0.0051   -0.3994    0.0000   -0.3879   -0.0288
  Px  O    1    0.1028    0.6162    0.5079    0.1442   -0.3299    0.4713
  Py  O    1    0.1381   -0.4811    0.6551    0.1688   -0.3551   -0.4071
  Pz  O    1   -0.0391   -0.0078   -0.1885    0.9750    0.1103    0.0008
  S   H    2    0.3703    0.4432    0.2446   -0.0000    0.5847   -0.5146
  S   H    3    0.3776   -0.4384    0.2409   -0.0000    0.5105    0.5886


              NET ATOMIC CHARGES AND DIPOLE CONTRIBUTIONS

  ATOM NO.   TYPE          CHARGE      No. of ELECS.   s-Pop       p-Pop       
    1          O          -0.427577        6.4276     1.69738     4.73020
    2          H           0.213305        0.7867     0.78669
    3          H           0.214272        0.7857     0.78573
 DIPOLE           X         Y         Z       TOTAL
 POINT-CHG.     0.729     0.927    -0.268     1.210
 HYBRID         0.738     0.964    -0.276     1.245
 SUM            1.467     1.891    -0.544     2.455


          ATOMIC ORBITAL ELECTRON POPULATIONS

     Atom    s        px        py        pz   
    1  O   1.69738   1.33812   1.41640   1.97568
    2  H   0.78669
    3  H   0.78573

 **********************
 *                    *
 * JOB ENDED NORMALLY *
 *                    *
 **********************



 TOTAL JOB TIME:             0.04 SECONDS

 == MOPAC DONE ==


          MOPAC Job: "./h2oTraj/h2o_28.mop" ended normally on Jun  1, 2023, at 14:00.

rm: cannot remove ‘./h2oTraj/h2o_28.cim’: No such file or directory
rm: cannot remove ‘./h2oTraj/h2o_28.end’: No such file or directory
rm: cannot remove ‘./h2oTraj/h2o_28.log’: No such file or directory
rm: cannot remove ‘./h2oTraj/h2o_28.temp’: No such file or directory
rm: cannot remove ‘./h2oTraj/h2o_28.ple’: No such file or directory
rm: cannot remove ‘./h2oTraj/h2o_28.sts’: No such file or directory
