 *******************************************************************************
 ** Site#:    0         For non-commercial use only    Version 20.173L 64BITS **
 *******************************************************************************
 ** Cite this program as: MOPAC2016, Version: 20.173L, James J. P. Stewart,   **
 ** Stewart Computational Chemistry, web-site: HTTP://OpenMOPAC.net.          **
 *******************************************************************************
 **                                                                           **
 **                                MOPAC2016                                  **
 **                                                                           **
 *******************************************************************************

                              INDO CALCULATION RESULTS

 *******************************************************************************
 *  CALCULATION DONE:                                Thu Jun  1 14:01:01 2023  *
 *  INDO       - The INDO Hamiltonian to be used
 *
 *
 *
 *                 CHARGE ON SYSTEM = 0
 *
 *
 *
 *  C.I.=(N,M) - 2 DOUBLY FILLED LEVELS USED IN A C.I. INVOLVING 4 M.O.'S
 *  T=         - A TIME OF 172800.0 SECONDS REQUESTED
 *  DUMP=N     - RESTART FILE WRITTEN EVERY 7200.0 SECONDS REQUESTED
 *  RELSCF     - DEFAULT SCF CRITERION MULTIPLIED BY 0.0000
 *              (DEFAULT SCF CRITERION = 0.00010)
 *  ALLVEC     - PRINT ALL EIGENVECTORS
 **********
 *  WARNING: Specified print options may not behave as expected with INDO
 **********
 *******************************************************************************
INDO C.I.=(4,2) AllVEC CHARGE=0 RELSCF=0.000001


   ATOM   CHEMICAL          X               Y               Z
  NUMBER   SYMBOL      (ANGSTROMS)     (ANGSTROMS)     (ANGSTROMS)
 
     1       O         -1.04944202  *   0.47301948  *   0.02774836  *
     2       H         -0.11572153  *   0.35712249  *  -0.17651493  *
     3       H         -1.30910500  *   1.35057992  *  -0.26393524  *
 


          CARTESIAN COORDINATES 

    NO.       ATOM           X           Y           Z

     1         O         -1.0494      0.4730      0.0277
     2         H         -0.1157      0.3571     -0.1765
     3         H         -1.3091      1.3506     -0.2639

           Empirical Formula: H2 O  =     3 atoms



      MOLECULAR POINT GROUP   :   C2v 


      RHF CALCULATION, NO. OF DOUBLY OCCUPIED LEVELS = 4

 WARNING: INDO only performs single-point calculations
  SCF CRITERION =    0.1000E-09

 Summary of symmetry occupancy in each shell:

 SHELL     
    1    4
    v    2
 TOTAL   6




    ROOT NO.    1           2           3           4           5           6

           -40.72462   -19.95178   -14.54267   -12.79461     6.12621     8.07704
  
  
  S  O   1   0.83441     0.00081    -0.38606     0.00000    -0.39333    -0.00380
 PX  O   1   0.10038     0.59579     0.51055     0.24213    -0.29159     0.48025
 PY  O   1   0.11464    -0.49691     0.57901     0.36979    -0.32221    -0.40512
 PZ  O   1  -0.07436     0.04403    -0.37651     0.89701     0.21154     0.03737
  
  S  H   2   0.37025     0.44544     0.23827    -0.00000     0.55775    -0.54466
  
  S  H   3   0.37140    -0.44470     0.23772    -0.00000     0.54829     0.55424


 Reference determinate nber   1 is ALPHA 1 -   4
 SINGLE excitations FROM orbs   3 to   4 INTO orbs   5 to   6
 

 CI excitations=    5:        =  5
 The lowest    5 spin-adapted configurations of multiplicity=  1
     sym   eV   cm**-1 -dets- dipole oscilator X FRAG ....Excitations named from first reference determinate
                       tot  #  Debye  strength
 
   1      0.000      0.  1  1  2.3976 0.000000 0  0 (     )->       )
   2     11.009  88795.  1  1  0.1316 0.033593 1  1 (   4 )->   5   )
   3     12.057  97249.  1  1  0.7580 0.000003 1  1 (   4 )->   6   )
   4     13.518 109029.  1  1  0.6410 0.022809 1  1 (   3 )->   5   )
   5     14.629 117993.  1  1  0.0463 0.207841 1  1 (   3 )->   6   )

 Depression of ground-state after CI=          0. cm**-1 Energy=  -465.7002756 eV
 Dipole moment=  1.425383  1.616159 -1.051021 tot=  2.397568 Debyes


  CI trans.  energy frequency wavelength oscillator ---------polarization---------    dipole   ------components----- 
 st.  symm.    eV      cm-1       nm      strength       x          y         z       moment     x       y       z 

   2     11.0090744    88794.    112.62  0.033588   0.242132   0.369793   0.897009  0.147241   0.010   0.135  -0.058
   3     12.0573326    97249.    102.83  0.000009   0.242109   0.369826   0.897002  0.760615   0.509   0.460  -0.327
   4     13.5177890   109029.     91.72  0.022826  -0.625426  -0.647320   0.435682  0.642777  -0.432  -0.388   0.276
   5     14.6292576   117993.     84.75  0.207823  -0.765276   0.641109  -0.057725  0.066425   0.048  -0.046   0.006
 
 Polarizability (au  ) xx=    1.41 xy=   -0.89 yy=    1.09 xz=    0.15 yz=    0.05 zz=    0.56
 Polarizability (A**3) xx=    0.21 xy=   -0.13 yy=    0.16 xz=    0.02 yz=    0.01 zz=    0.08
 ***********************************
 ***********************************
 CI Matrix
  1.0000000000  0.0000000000  0.0000000000  0.0000000000  0.0000000000 
  0.0000000000 -0.9999805250  0.0062409664 -0.0000001322 -0.0000000101 
  0.0000000000 -0.0062409664 -0.9999805250 -0.0000001171 -0.0000001330 
  0.0000000000  0.0000001328  0.0000001158 -0.9999928548  0.0037802593 
  0.0000000000 -0.0000000115 -0.0000001334  0.0037802593  0.9999928548 
 ***********************************
 ***********************************
 
 
 Major CI contributions to CI states
 
State    1  0.0000     CI coeff  CI percent
    Config       1   1.00000000  1.00000000
 Total coeff printed             1.00000000
  
State    2 11.0091     CI coeff  CI percent
    Config       2  -0.99998052  0.99996105
 Total coeff printed             0.99996105
  
State    3 12.0573     CI coeff  CI percent
    Config       3  -0.99998052  0.99996105
 Total coeff printed             0.99996105
  
State    4 13.5178     CI coeff  CI percent
    Config       4  -0.99999285  0.99998571
 Total coeff printed             0.99998571
  
State    5 14.6293     CI coeff  CI percent
    Config       5   0.99999285  0.99998571
 Total coeff printed             0.99998571
  

 -------------------------------------------------------------------------------
 INDO C.I.=(4,2) AllVEC CHARGE=0 RELSCF=0.000001




     1SCF WAS SPECIFIED, SO BFGS WAS NOT USED                 
     SCF FIELD WAS ACHIEVED                                   


                              INDO CALCULATION
                                                       MOPAC2016 (Version: 20.173L)
                                                       Thu Jun  1 14:01:01 2023




          FINAL HEAT OF FORMATION =      -8357.83036 KCAL/MOL =  -34969.16221 KJ/MOL


          TOTAL ENERGY            =       -369.53156 EV
          ELECTRONIC ENERGY       =       -465.70028 EV  POINT GROUP:     C2v 
          CORE-CORE REPULSION     =         96.16871 EV
          COSMO AREA              =         42.51 SQUARE ANGSTROMS
          COSMO VOLUME            =         25.24 CUBIC ANGSTROMS

          IONIZATION POTENTIAL    =         12.794613 EV
          HOMO LUMO ENERGIES (EV) =        -12.795  6.126
          NO. OF FILLED LEVELS    =          4
          MOLECULAR WEIGHT        =         18.0152

          MOLECULAR DIMENSIONS (Angstroms)

            Atom       Atom       Distance
            H     3    H     2     1.55524
            H     2    O     1     0.56578
            H     2    H     3     0.00000


          SCF CALCULATIONS        =          1
 
          WALL-CLOCK TIME         =          0.020 SECONDS
          COMPUTATION TIME        =          0.010 SECONDS




   ATOM   CHEMICAL          X               Y               Z
  NUMBER   SYMBOL      (ANGSTROMS)     (ANGSTROMS)     (ANGSTROMS)
 
     1       O         -1.04944202  *   0.47301948  *   0.02774836  *
     2       H         -0.11572153  *   0.35712249  *  -0.17651493  *
     3       H         -1.30910500  *   1.35057992  *  -0.26393524  *

                             CARTESIAN COORDINATES

   1    O       -1.049442022     0.473019483     0.027748361
   2    H       -0.115721533     0.357122490    -0.176514925
   3    H       -1.309104999     1.350579919    -0.263935242


           Empirical Formula: H2 O  =     3 atoms



      MOLECULAR POINT GROUP   :   C2v 


                EIGENVECTORS  


   Root No.       1         2         3         4         5         6

                 1 a1      1 b2      2 a1      1 b1      3 a1      2 b2  

               -40.725   -19.952   -14.543   -12.795     6.126     8.077
  
  S   O    1    0.8344    0.0008   -0.3861    0.0000   -0.3933   -0.0038
  Px  O    1    0.1004    0.5958    0.5106    0.2421   -0.2916    0.4802
  Py  O    1    0.1146   -0.4969    0.5790    0.3698   -0.3222   -0.4051
  Pz  O    1   -0.0744    0.0440   -0.3765    0.8970    0.2115    0.0374
  S   H    2    0.3702    0.4454    0.2383   -0.0000    0.5577   -0.5447
  S   H    3    0.3714   -0.4447    0.2377   -0.0000    0.5483    0.5542


              NET ATOMIC CHARGES AND DIPOLE CONTRIBUTIONS

  ATOM NO.   TYPE          CHARGE      No. of ELECS.   s-Pop       p-Pop       
    1          O          -0.431064        6.4311     1.69056     4.74051
    2          H           0.215465        0.7845     0.78453
    3          H           0.215599        0.7844     0.78440
 DIPOLE           X         Y         Z       TOTAL
 POINT-CHG.     0.697     0.789    -0.513     1.171
 HYBRID         0.728     0.827    -0.538     1.226
 SUM            1.425     1.616    -1.051     2.398


          ATOMIC ORBITAL ELECTRON POPULATIONS

     Atom    s        px        py        pz   
    1  O   1.69056   1.36868   1.46412   1.90771
    2  H   0.78453
    3  H   0.78440

 **********************
 *                    *
 * JOB ENDED NORMALLY *
 *                    *
 **********************



 TOTAL JOB TIME:             0.04 SECONDS

 == MOPAC DONE ==


          MOPAC Job: "./h2oTraj/h2o_61.mop" ended normally on Jun  1, 2023, at 14:01.

rm: cannot remove ‘./h2oTraj/h2o_61.cim’: No such file or directory
rm: cannot remove ‘./h2oTraj/h2o_61.end’: No such file or directory
rm: cannot remove ‘./h2oTraj/h2o_61.log’: No such file or directory
rm: cannot remove ‘./h2oTraj/h2o_61.temp’: No such file or directory
rm: cannot remove ‘./h2oTraj/h2o_61.ple’: No such file or directory
rm: cannot remove ‘./h2oTraj/h2o_61.sts’: No such file or directory
