 *******************************************************************************
 ** Site#:    0         For non-commercial use only    Version 20.173L 64BITS **
 *******************************************************************************
 ** Cite this program as: MOPAC2016, Version: 20.173L, James J. P. Stewart,   **
 ** Stewart Computational Chemistry, web-site: HTTP://OpenMOPAC.net.          **
 *******************************************************************************
 **                                                                           **
 **                                MOPAC2016                                  **
 **                                                                           **
 *******************************************************************************

                              INDO CALCULATION RESULTS

 *******************************************************************************
 *  CALCULATION DONE:                                Thu Jun  1 14:00:56 2023  *
 *  INDO       - The INDO Hamiltonian to be used
 *
 *
 *
 *                 CHARGE ON SYSTEM = 0
 *
 *
 *
 *  C.I.=(N,M) - 2 DOUBLY FILLED LEVELS USED IN A C.I. INVOLVING 4 M.O.'S
 *  T=         - A TIME OF 172800.0 SECONDS REQUESTED
 *  DUMP=N     - RESTART FILE WRITTEN EVERY 7200.0 SECONDS REQUESTED
 *  RELSCF     - DEFAULT SCF CRITERION MULTIPLIED BY 0.0000
 *              (DEFAULT SCF CRITERION = 0.00010)
 *  ALLVEC     - PRINT ALL EIGENVECTORS
 **********
 *  WARNING: Specified print options may not behave as expected with INDO
 **********
 *******************************************************************************
INDO C.I.=(4,2) AllVEC CHARGE=0 RELSCF=0.000001


   ATOM   CHEMICAL          X               Y               Z
  NUMBER   SYMBOL      (ANGSTROMS)     (ANGSTROMS)     (ANGSTROMS)
 
     1       O         -1.05097748  *   0.46271256  *   0.00852173  *
     2       H         -0.06814617  *   0.48176606  *  -0.05903719  *
     3       H         -1.33230795  *   1.38953836  *  -0.07622845  *
 


          CARTESIAN COORDINATES 

    NO.       ATOM           X           Y           Z

     1         O         -1.0510      0.4627      0.0085
     2         H         -0.0681      0.4818     -0.0590
     3         H         -1.3323      1.3895     -0.0762

           Empirical Formula: H2 O  =     3 atoms



      MOLECULAR POINT GROUP   :   C2v 


      RHF CALCULATION, NO. OF DOUBLY OCCUPIED LEVELS = 4

 WARNING: INDO only performs single-point calculations
  SCF CRITERION =    0.1000E-09

 Summary of symmetry occupancy in each shell:

 SHELL     
    1    4
    v    2
 TOTAL   6




    ROOT NO.    1           2           3           4           5           6

           -40.41981   -19.63932   -14.68117   -12.80609     5.96235     7.71865
  
  
  S  O   1   0.83594     0.00479    -0.39299     0.00000    -0.38235    -0.02334
 PX  O   1   0.09807     0.62988     0.49678     0.06602    -0.31829     0.49109
 PY  O   1   0.13982    -0.45847     0.68172     0.11072    -0.37701    -0.38873
 PZ  O   1  -0.02214     0.00925    -0.10919     0.99166     0.06328     0.01071
  
  S  H   2   0.36517     0.44522     0.24883     0.00000     0.57993    -0.51980
  
  S  H   3   0.37175    -0.44128     0.24531    -0.00000     0.51965     0.58040


 Reference determinate nber   1 is ALPHA 1 -   4
 SINGLE excitations FROM orbs   3 to   4 INTO orbs   5 to   6
 

 CI excitations=    5:        =  5
 The lowest    5 spin-adapted configurations of multiplicity=  1
     sym   eV   cm**-1 -dets- dipole oscilator X FRAG ....Excitations named from first reference determinate
                       tot  #  Debye  strength
 
   1      0.000      0.  1  1  2.4447 0.000000 0  0 (     )->       )
   2     10.826  87318.  1  1  0.3224 0.031217 1  1 (   4 )->   5   )
   3     11.756  94821.  1  1  0.7668 0.000126 1  1 (   4 )->   6   )
   4     13.565 109409.  1  1  0.6938 0.033752 1  1 (   3 )->   5   )
   5     14.501 116959.  1  1  0.2916 0.219303 1  1 (   3 )->   6   )

 Depression of ground-state after CI=          0. cm**-1 Energy=  -464.0870493 eV
 Dipole moment=  1.427742  1.959502 -0.313829 tot=  2.444705 Debyes


  CI trans.  energy frequency wavelength oscillator ---------polarization---------    dipole   ------components----- 
 st.  symm.    eV      cm-1       nm      strength       x          y         z       moment     x       y       z 

   2     10.8244558    87305.    114.54  0.031002   0.066019   0.110718   0.991657  0.532480  -0.361   0.391  -0.020
   3     11.7578982    94834.    105.45  0.000354   0.066018   0.110720   0.991656  0.867404   0.818   0.277  -0.085
   4     13.5642374   109403.     91.40  0.034588  -0.752440  -0.647197   0.122353  0.767798  -0.726  -0.240   0.075
   5     14.5017412   116965.     85.50  0.218419  -0.795503   0.605772  -0.014674  0.440396   0.345  -0.273   0.008
 
 Polarizability (au  ) xx=    1.70 xy=   -0.90 yy=    1.03 xz=    0.03 yz=    0.01 zz=    0.59
 Polarizability (A**3) xx=    0.25 xy=   -0.13 yy=    0.15 xz=    0.00 yz=    0.00 zz=    0.09
 ***********************************
 ***********************************
 CI Matrix
  1.0000000000  0.0000000000  0.0000000000  0.0000000000  0.0000000000 
  0.0000000000 -0.9991508818  0.0412009157 -0.0000000339 -0.0000000056 
  0.0000000000 -0.0412009157 -0.9991508818 -0.0000000646 -0.0000000391 
  0.0000000000  0.0000000363  0.0000000620 -0.9995993094  0.0283058420 
  0.0000000000 -0.0000000083 -0.0000000406  0.0283058420  0.9995993094 
 ***********************************
 ***********************************
 
 
 Major CI contributions to CI states
 
State    1  0.0000     CI coeff  CI percent
    Config       1   1.00000000  1.00000000
 Total coeff printed             1.00000000
  
State    2 10.8245     CI coeff  CI percent
    Config       2  -0.99915088  0.99830248
    Config       3   0.04120092  0.00169752
 Total coeff printed             1.00000000
  
State    3 11.7579     CI coeff  CI percent
    Config       2  -0.04120092  0.00169752
    Config       3  -0.99915088  0.99830248
 Total coeff printed             1.00000000
  
State    4 13.5642     CI coeff  CI percent
    Config       4  -0.99959931  0.99919878
 Total coeff printed             0.99919878
  
State    5 14.5017     CI coeff  CI percent
    Config       5   0.99959931  0.99919878
 Total coeff printed             0.99919878
  

 -------------------------------------------------------------------------------
 INDO C.I.=(4,2) AllVEC CHARGE=0 RELSCF=0.000001




     1SCF WAS SPECIFIED, SO BFGS WAS NOT USED                 
     SCF FIELD WAS ACHIEVED                                   


                              INDO CALCULATION
                                                       MOPAC2016 (Version: 20.173L)
                                                       Thu Jun  1 14:00:56 2023




          FINAL HEAT OF FORMATION =      -8336.06898 KCAL/MOL =  -34878.11260 KJ/MOL


          TOTAL ENERGY            =       -368.58790 EV
          ELECTRONIC ENERGY       =       -464.08705 EV  POINT GROUP:     C2v 
          CORE-CORE REPULSION     =         95.49915 EV
          COSMO AREA              =         42.64 SQUARE ANGSTROMS
          COSMO VOLUME            =         25.31 CUBIC ANGSTROMS

          IONIZATION POTENTIAL    =         12.806091 EV
          HOMO LUMO ENERGIES (EV) =        -12.806  5.962
          NO. OF FILLED LEVELS    =          4
          MOLECULAR WEIGHT        =         18.0152

          MOLECULAR DIMENSIONS (Angstroms)

            Atom       Atom       Distance
            H     3    H     2     1.55642
            H     2    O     1     0.59366
            H     2    H     3     0.00000


          SCF CALCULATIONS        =          1
 
          WALL-CLOCK TIME         =          0.020 SECONDS
          COMPUTATION TIME        =          0.010 SECONDS




   ATOM   CHEMICAL          X               Y               Z
  NUMBER   SYMBOL      (ANGSTROMS)     (ANGSTROMS)     (ANGSTROMS)
 
     1       O         -1.05097748  *   0.46271256  *   0.00852173  *
     2       H         -0.06814617  *   0.48176606  *  -0.05903719  *
     3       H         -1.33230795  *   1.38953836  *  -0.07622845  *

                             CARTESIAN COORDINATES

   1    O       -1.050977485     0.462712557     0.008521735
   2    H       -0.068146171     0.481766057    -0.059037194
   3    H       -1.332307947     1.389538361    -0.076228447


           Empirical Formula: H2 O  =     3 atoms



      MOLECULAR POINT GROUP   :   C2v 


                EIGENVECTORS  


   Root No.       1         2         3         4         5         6

                 1 a1      1 b2      2 a1      1 b1      3 a1      2 b2  

               -40.420   -19.639   -14.681   -12.806     5.962     7.719
  
  S   O    1    0.8359    0.0048   -0.3930    0.0000   -0.3824   -0.0233
  Px  O    1    0.0981    0.6299    0.4968    0.0660   -0.3183    0.4911
  Py  O    1    0.1398   -0.4585    0.6817    0.1107   -0.3770   -0.3887
  Pz  O    1   -0.0221    0.0093   -0.1092    0.9917    0.0633    0.0107
  S   H    2    0.3652    0.4452    0.2488    0.0000    0.5799   -0.5198
  S   H    3    0.3717   -0.4413    0.2453   -0.0000    0.5196    0.5804


              NET ATOMIC CHARGES AND DIPOLE CONTRIBUTIONS

  ATOM NO.   TYPE          CHARGE      No. of ELECS.   s-Pop       p-Pop       
    1          O          -0.426817        6.4268     1.70652     4.72030
    2          H           0.213025        0.7870     0.78697
    3          H           0.213792        0.7862     0.78621
 DIPOLE           X         Y         Z       TOTAL
 POINT-CHG.     0.717     0.971    -0.156     1.217
 HYBRID         0.711     0.988    -0.158     1.228
 SUM            1.428     1.960    -0.314     2.445


          ATOMIC ORBITAL ELECTRON POPULATIONS

     Atom    s        px        py        pz   
    1  O   1.70652   1.31503   1.41351   1.99176
    2  H   0.78697
    3  H   0.78621

 **********************
 *                    *
 * JOB ENDED NORMALLY *
 *                    *
 **********************



 TOTAL JOB TIME:             0.04 SECONDS

 == MOPAC DONE ==


          MOPAC Job: "./h2oTraj/h2o_9.mop" ended normally on Jun  1, 2023, at 14:00.

rm: cannot remove ‘./h2oTraj/h2o_9.cim’: No such file or directory
rm: cannot remove ‘./h2oTraj/h2o_9.end’: No such file or directory
rm: cannot remove ‘./h2oTraj/h2o_9.log’: No such file or directory
rm: cannot remove ‘./h2oTraj/h2o_9.temp’: No such file or directory
rm: cannot remove ‘./h2oTraj/h2o_9.ple’: No such file or directory
rm: cannot remove ‘./h2oTraj/h2o_9.sts’: No such file or directory
