 *******************************************************************************
 ** Site#:    0         For non-commercial use only    Version 20.173L 64BITS **
 *******************************************************************************
 ** Cite this program as: MOPAC2016, Version: 20.173L, James J. P. Stewart,   **
 ** Stewart Computational Chemistry, web-site: HTTP://OpenMOPAC.net.          **
 *******************************************************************************
 **                                                                           **
 **                                MOPAC2016                                  **
 **                                                                           **
 *******************************************************************************

                              INDO CALCULATION RESULTS

 *******************************************************************************
 *  CALCULATION DONE:                                Thu Jun  1 14:00:56 2023  *
 *  INDO       - The INDO Hamiltonian to be used
 *
 *
 *
 *                 CHARGE ON SYSTEM = 0
 *
 *
 *
 *  C.I.=(N,M) - 2 DOUBLY FILLED LEVELS USED IN A C.I. INVOLVING 4 M.O.'S
 *  T=         - A TIME OF 172800.0 SECONDS REQUESTED
 *  DUMP=N     - RESTART FILE WRITTEN EVERY 7200.0 SECONDS REQUESTED
 *  RELSCF     - DEFAULT SCF CRITERION MULTIPLIED BY 0.0000
 *              (DEFAULT SCF CRITERION = 0.00010)
 *  ALLVEC     - PRINT ALL EIGENVECTORS
 **********
 *  WARNING: Specified print options may not behave as expected with INDO
 **********
 *******************************************************************************
INDO C.I.=(4,2) AllVEC CHARGE=0 RELSCF=0.000001


   ATOM   CHEMICAL          X               Y               Z
  NUMBER   SYMBOL      (ANGSTROMS)     (ANGSTROMS)     (ANGSTROMS)
 
     1       O         -1.05029145  *   0.46571447  *   0.01806281  *
     2       H         -0.11584322  *   0.41996698  *  -0.16583791  *
     3       H         -1.29550027  *   1.40368805  *  -0.12087340  *
 


          CARTESIAN COORDINATES 

    NO.       ATOM           X           Y           Z

     1         O         -1.0503      0.4657      0.0181
     2         H         -0.1158      0.4200     -0.1658
     3         H         -1.2955      1.4037     -0.1209

           Empirical Formula: H2 O  =     3 atoms



      MOLECULAR POINT GROUP   :   C2v 


      RHF CALCULATION, NO. OF DOUBLY OCCUPIED LEVELS = 4

 WARNING: INDO only performs single-point calculations
  SCF CRITERION =    0.1000E-09

 Summary of symmetry occupancy in each shell:

 SHELL     
    1    4
    v    2
 TOTAL   6




    ROOT NO.    1           2           3           4           5           6

           -40.70476   -19.72926   -14.68038   -12.81155     6.13183     7.91012
  
  
  S  O   1   0.83323    -0.00920    -0.39426    -0.00000    -0.38474    -0.04663
 PX  O   1   0.10892     0.60453     0.51218     0.19857    -0.24130    -0.51254
 PY  O   1   0.12629    -0.49191     0.63903     0.19421    -0.41256     0.35468
 PZ  O   1  -0.04804    -0.02551    -0.23505     0.96065     0.13328     0.03424
  
  S  H   2   0.37765     0.43852     0.24023     0.00000     0.48754     0.60801
  
  S  H   3   0.36466    -0.44668     0.24682     0.00000     0.60670    -0.48835


 Reference determinate nber   1 is ALPHA 1 -   4
 SINGLE excitations FROM orbs   3 to   4 INTO orbs   5 to   6
 

 CI excitations=    5:        =  5
 The lowest    5 spin-adapted configurations of multiplicity=  1
     sym   eV   cm**-1 -dets- dipole oscilator X FRAG ....Excitations named from first reference determinate
                       tot  #  Debye  strength
 
   1      0.000      0.  1  1  2.4394 0.000000 0  0 (     )->       )
   2     10.989  88634.  1  1  0.6079 0.032083 1  1 (   4 )->   5   )
   3     11.938  96283.  1  1  0.9089 0.000512 1  1 (   4 )->   6   )
   4     13.680 110336.  1  1  0.8556 0.033139 1  1 (   3 )->   5   )
   5     14.655 118204.  1  1  0.5672 0.211192 1  1 (   3 )->   6   )

 Depression of ground-state after CI=          0. cm**-1 Energy=  -465.3011824 eV
 Dipole moment=  1.465689  1.830181 -0.672944 tot=  2.439398 Debyes


  CI trans.  energy frequency wavelength oscillator ---------polarization---------    dipole   ------components----- 
 st.  symm.    eV      cm-1       nm      strength       x          y         z       moment     x       y       z 

   2     10.9829285    88584.    112.89  0.031236   0.198565   0.194205   0.960654  1.009466   0.853  -0.535  -0.068
   3     11.9437660    96333.    103.81  0.001414   0.198561   0.194207   0.960655  1.190881  -0.310   1.138  -0.166
   4     13.6771081   110314.     90.65  0.036097  -0.215834  -0.947444   0.236147  1.051537   0.280  -1.003   0.145
   5     14.6581614   118226.     84.58  0.208054   0.799085  -0.599609  -0.043953  0.835286  -0.665   0.504   0.036
 
 Polarizability (au  ) xx=    1.42 xy=   -0.92 yy=    1.18 xz=    0.02 yz=    0.07 zz=    0.58
 Polarizability (A**3) xx=    0.21 xy=   -0.14 yy=    0.17 xz=    0.00 yz=    0.01 zz=    0.09
 ***********************************
 ***********************************
 CI Matrix
  1.0000000000  0.0000000000  0.0000000000  0.0000000000  0.0000000000 
  0.0000000000 -0.9967516094  0.0805371294  0.0000001715 -0.0000000034 
  0.0000000000 -0.0805371294 -0.9967516094  0.0000001408  0.0000001925 
  0.0000000000 -0.0000001814 -0.0000001162 -0.9986004609  0.0528878007 
  0.0000000000  0.0000000218  0.0000001986  0.0528878007  0.9986004609 
 ***********************************
 ***********************************
 
 
 Major CI contributions to CI states
 
State    1  0.0000     CI coeff  CI percent
    Config       1   1.00000000  1.00000000
 Total coeff printed             1.00000000
  
State    2 10.9829     CI coeff  CI percent
    Config       2  -0.99675161  0.99351377
    Config       3   0.08053713  0.00648623
 Total coeff printed             1.00000000
  
State    3 11.9438     CI coeff  CI percent
    Config       2  -0.08053713  0.00648623
    Config       3  -0.99675161  0.99351377
 Total coeff printed             1.00000000
  
State    4 13.6771     CI coeff  CI percent
    Config       4  -0.99860046  0.99720288
    Config       5   0.05288780  0.00279712
 Total coeff printed             1.00000000
  
State    5 14.6582     CI coeff  CI percent
    Config       4   0.05288780  0.00279712
    Config       5   0.99860046  0.99720288
 Total coeff printed             1.00000000
  

 -------------------------------------------------------------------------------
 INDO C.I.=(4,2) AllVEC CHARGE=0 RELSCF=0.000001




     1SCF WAS SPECIFIED, SO BFGS WAS NOT USED                 
     SCF FIELD WAS ACHIEVED                                   


                              INDO CALCULATION
                                                       MOPAC2016 (Version: 20.173L)
                                                       Thu Jun  1 14:00:56 2023




          FINAL HEAT OF FORMATION =      -8351.98320 KCAL/MOL =  -34944.69770 KJ/MOL


          TOTAL ENERGY            =       -369.27801 EV
          ELECTRONIC ENERGY       =       -465.30118 EV  POINT GROUP:     C2v 
          CORE-CORE REPULSION     =         96.02317 EV
          COSMO AREA              =         42.51 SQUARE ANGSTROMS
          COSMO VOLUME            =         25.21 CUBIC ANGSTROMS

          IONIZATION POTENTIAL    =         12.811551 EV
          HOMO LUMO ENERGIES (EV) =        -12.812  6.132
          NO. OF FILLED LEVELS    =          4
          MOLECULAR WEIGHT        =         18.0152

          MOLECULAR DIMENSIONS (Angstroms)

            Atom       Atom       Distance
            H     3    H     2     1.53666
            H     2    O     1     0.58615
            O     1    H     3     0.00000


          SCF CALCULATIONS        =          1
 
          WALL-CLOCK TIME         =          0.016 SECONDS
          COMPUTATION TIME        =          0.010 SECONDS




   ATOM   CHEMICAL          X               Y               Z
  NUMBER   SYMBOL      (ANGSTROMS)     (ANGSTROMS)     (ANGSTROMS)
 
     1       O         -1.05029145  *   0.46571447  *   0.01806281  *
     2       H         -0.11584322  *   0.41996698  *  -0.16583791  *
     3       H         -1.29550027  *   1.40368805  *  -0.12087340  *

                             CARTESIAN COORDINATES

   1    O       -1.050291454     0.465714468     0.018062813
   2    H       -0.115843219     0.419966975    -0.165837913
   3    H       -1.295500271     1.403688050    -0.120873400


           Empirical Formula: H2 O  =     3 atoms



      MOLECULAR POINT GROUP   :   C2v 


                EIGENVECTORS  


   Root No.       1         2         3         4         5         6

                 1 a1      1 b2      2 a1      1 b1      3 a1      2 b2  

               -40.705   -19.729   -14.680   -12.812     6.132     7.910
  
  S   O    1    0.8332   -0.0092   -0.3943   -0.0000   -0.3847   -0.0466
  Px  O    1    0.1089    0.6045    0.5122    0.1986   -0.2413   -0.5125
  Py  O    1    0.1263   -0.4919    0.6390    0.1942   -0.4126    0.3547
  Pz  O    1   -0.0480   -0.0255   -0.2351    0.9607    0.1333    0.0342
  S   H    2    0.3776    0.4385    0.2402    0.0000    0.4875    0.6080
  S   H    3    0.3647   -0.4467    0.2468    0.0000    0.6067   -0.4883


              NET ATOMIC CHARGES AND DIPOLE CONTRIBUTIONS

  ATOM NO.   TYPE          CHARGE      No. of ELECS.   s-Pop       p-Pop       
    1          O          -0.427886        6.4279     1.69961     4.72828
    2          H           0.214737        0.7853     0.78526
    3          H           0.213149        0.7869     0.78685
 DIPOLE           X         Y         Z       TOTAL
 POINT-CHG.     0.713     0.913    -0.332     1.205
 HYBRID         0.753     0.917    -0.341     1.235
 SUM            1.466     1.830    -0.673     2.440


          ATOMIC ORBITAL ELECTRON POPULATIONS

     Atom    s        px        py        pz   
    1  O   1.69961   1.35815   1.40800   1.96213
    2  H   0.78526
    3  H   0.78685

 **********************
 *                    *
 * JOB ENDED NORMALLY *
 *                    *
 **********************



 TOTAL JOB TIME:             0.03 SECONDS

 == MOPAC DONE ==


          MOPAC Job: "./h2oTraj/h2o_23.mop" ended normally on Jun  1, 2023, at 14:00.

rm: cannot remove ‘./h2oTraj/h2o_23.cim’: No such file or directory
rm: cannot remove ‘./h2oTraj/h2o_23.end’: No such file or directory
rm: cannot remove ‘./h2oTraj/h2o_23.log’: No such file or directory
rm: cannot remove ‘./h2oTraj/h2o_23.temp’: No such file or directory
rm: cannot remove ‘./h2oTraj/h2o_23.ple’: No such file or directory
rm: cannot remove ‘./h2oTraj/h2o_23.sts’: No such file or directory
