 *******************************************************************************
 ** Site#:    0         For non-commercial use only    Version 20.173L 64BITS **
 *******************************************************************************
 ** Cite this program as: MOPAC2016, Version: 20.173L, James J. P. Stewart,   **
 ** Stewart Computational Chemistry, web-site: HTTP://OpenMOPAC.net.          **
 *******************************************************************************
 **                                                                           **
 **                                MOPAC2016                                  **
 **                                                                           **
 *******************************************************************************

                              INDO CALCULATION RESULTS

 *******************************************************************************
 *  CALCULATION DONE:                                Thu Jun  1 14:01:01 2023  *
 *  INDO       - The INDO Hamiltonian to be used
 *
 *
 *
 *                 CHARGE ON SYSTEM = 0
 *
 *
 *
 *  C.I.=(N,M) - 2 DOUBLY FILLED LEVELS USED IN A C.I. INVOLVING 4 M.O.'S
 *  T=         - A TIME OF 172800.0 SECONDS REQUESTED
 *  DUMP=N     - RESTART FILE WRITTEN EVERY 7200.0 SECONDS REQUESTED
 *  RELSCF     - DEFAULT SCF CRITERION MULTIPLIED BY 0.0000
 *              (DEFAULT SCF CRITERION = 0.00010)
 *  ALLVEC     - PRINT ALL EIGENVECTORS
 **********
 *  WARNING: Specified print options may not behave as expected with INDO
 **********
 *******************************************************************************
INDO C.I.=(4,2) AllVEC CHARGE=0 RELSCF=0.000001


   ATOM   CHEMICAL          X               Y               Z
  NUMBER   SYMBOL      (ANGSTROMS)     (ANGSTROMS)     (ANGSTROMS)
 
     1       O         -1.05374366  *   0.46459761  *   0.01945461  *
     2       H         -0.07737510  *   0.45937200  *  -0.11762900  *
     3       H         -1.27917149  *   1.38201094  *  -0.19117429  *
 


          CARTESIAN COORDINATES 

    NO.       ATOM           X           Y           Z

     1         O         -1.0537      0.4646      0.0195
     2         H         -0.0774      0.4594     -0.1176
     3         H         -1.2792      1.3820     -0.1912

           Empirical Formula: H2 O  =     3 atoms



      MOLECULAR POINT GROUP   :   C2v 


      RHF CALCULATION, NO. OF DOUBLY OCCUPIED LEVELS = 4

 WARNING: INDO only performs single-point calculations
  SCF CRITERION =    0.1000E-09

 Summary of symmetry occupancy in each shell:

 SHELL     
    1    4
    v    2
 TOTAL   6




    ROOT NO.    1           2           3           4           5           6

           -40.57617   -19.40059   -14.86278   -12.82832     6.10746     7.59599
  
  
  S  O   1   0.83259     0.00651    -0.40433    -0.00000    -0.37668    -0.03722
 PX  O   1   0.10374     0.61622     0.50663     0.13583    -0.34940     0.46077
 PY  O   1   0.13556    -0.48219     0.62951     0.25328    -0.34361    -0.41305
 PZ  O   1  -0.05056     0.04012    -0.23832     0.95781     0.14041     0.04388
  
  S  H   2   0.36638     0.44204     0.25425     0.00000     0.59423    -0.50261
  
  S  H   3   0.37532    -0.43671     0.24923     0.00000     0.49512     0.60096


 Reference determinate nber   1 is ALPHA 1 -   4
 SINGLE excitations FROM orbs   3 to   4 INTO orbs   5 to   6
 

 CI excitations=    5:        =  5
 The lowest    5 spin-adapted configurations of multiplicity=  1
     sym   eV   cm**-1 -dets- dipole oscilator X FRAG ....Excitations named from first reference determinate
                       tot  #  Debye  strength
 
   1      0.000      0.  1  1  2.4955 0.000000 0  0 (     )->       )
   2     10.940  88238.  1  1  0.4943 0.030616 1  1 (   4 )->   5   )
   3     11.678  94186.  1  1  0.8134 0.000319 1  1 (   4 )->   6   )
   4     13.885 111990.  1  1  0.7745 0.044222 1  1 (   3 )->   5   )
   5     14.606 117805.  1  1  0.4644 0.221598 1  1 (   3 )->   6   )

 Depression of ground-state after CI=          0. cm**-1 Energy=  -464.3539196 eV
 Dipole moment=  1.499683  1.865454 -0.705976 tot=  2.495470 Debyes


  CI trans.  energy frequency wavelength oscillator ---------polarization---------    dipole   ------components----- 
 st.  symm.    eV      cm-1       nm      strength       x          y         z       moment     x       y       z 

   2     10.9354910    88201.    113.38  0.029944   0.135833   0.253280   0.957809  0.882360  -0.619   0.625  -0.077
   3     11.6820969    94223.    106.13  0.001024   0.135835   0.253277   0.957810  1.074841   1.065  -0.017  -0.147
   4     13.8824761   111970.     89.31  0.047095  -0.835304  -0.490582   0.248188  0.979222  -0.970   0.015   0.134
   5     14.6084466   117825.     84.87  0.218604  -0.755467   0.651929  -0.065256  0.760819   0.567  -0.505   0.053
 
 Polarizability (au  ) xx=    1.69 xy=   -0.88 yy=    1.13 xz=    0.07 yz=   -0.02 zz=    0.57
 Polarizability (A**3) xx=    0.25 xy=   -0.13 yy=    0.17 xz=    0.01 yz=   -0.00 zz=    0.08
 ***********************************
 ***********************************
 CI Matrix
  1.0000000000  0.0000000000  0.0000000000  0.0000000000  0.0000000000 
  0.0000000000 -0.9969187013  0.0784417172  0.0000001095  0.0000000031 
  0.0000000000 -0.0784417172 -0.9969187013  0.0000001057  0.0000001225 
  0.0000000000 -0.0000001165 -0.0000000895 -0.9982532492  0.0590800352 
  0.0000000000  0.0000000196  0.0000001274  0.0590800352  0.9982532492 
 ***********************************
 ***********************************
 
 
 Major CI contributions to CI states
 
State    1  0.0000     CI coeff  CI percent
    Config       1   1.00000000  1.00000000
 Total coeff printed             1.00000000
  
State    2 10.9355     CI coeff  CI percent
    Config       2  -0.99691870  0.99384690
    Config       3   0.07844172  0.00615310
 Total coeff printed             1.00000000
  
State    3 11.6821     CI coeff  CI percent
    Config       2  -0.07844172  0.00615310
    Config       3  -0.99691870  0.99384690
 Total coeff printed             1.00000000
  
State    4 13.8825     CI coeff  CI percent
    Config       4  -0.99825325  0.99650955
    Config       5   0.05908004  0.00349045
 Total coeff printed             1.00000000
  
State    5 14.6084     CI coeff  CI percent
    Config       4   0.05908004  0.00349045
    Config       5   0.99825325  0.99650955
 Total coeff printed             1.00000000
  

 -------------------------------------------------------------------------------
 INDO C.I.=(4,2) AllVEC CHARGE=0 RELSCF=0.000001




     1SCF WAS SPECIFIED, SO BFGS WAS NOT USED                 
     SCF FIELD WAS ACHIEVED                                   


                              INDO CALCULATION
                                                       MOPAC2016 (Version: 20.173L)
                                                       Thu Jun  1 14:01:01 2023




          FINAL HEAT OF FORMATION =      -8338.63330 KCAL/MOL =  -34888.84174 KJ/MOL


          TOTAL ENERGY            =       -368.69910 EV
          ELECTRONIC ENERGY       =       -464.35392 EV  POINT GROUP:     C2v 
          CORE-CORE REPULSION     =         95.65482 EV
          COSMO AREA              =         42.84 SQUARE ANGSTROMS
          COSMO VOLUME            =         25.50 CUBIC ANGSTROMS

          IONIZATION POTENTIAL    =         12.828323 EV
          HOMO LUMO ENERGIES (EV) =        -12.828  6.107
          NO. OF FILLED LEVELS    =          4
          MOLECULAR WEIGHT        =         18.0152

          MOLECULAR DIMENSIONS (Angstroms)

            Atom       Atom       Distance
            H     3    H     2     1.51690
            H     2    O     1     0.61570
            O     1    H     3     0.00000


          SCF CALCULATIONS        =          1
 
          WALL-CLOCK TIME         =          0.016 SECONDS
          COMPUTATION TIME        =          0.010 SECONDS




   ATOM   CHEMICAL          X               Y               Z
  NUMBER   SYMBOL      (ANGSTROMS)     (ANGSTROMS)     (ANGSTROMS)
 
     1       O         -1.05374366  *   0.46459761  *   0.01945461  *
     2       H         -0.07737510  *   0.45937200  *  -0.11762900  *
     3       H         -1.27917149  *   1.38201094  *  -0.19117429  *

                             CARTESIAN COORDINATES

   1    O       -1.053743659     0.464597610     0.019454608
   2    H       -0.077375097     0.459371999    -0.117629004
   3    H       -1.279171495     1.382010937    -0.191174293


           Empirical Formula: H2 O  =     3 atoms



      MOLECULAR POINT GROUP   :   C2v 


                EIGENVECTORS  


   Root No.       1         2         3         4         5         6

                 1 a1      1 b2      2 a1      1 b1      3 a1      2 b2  

               -40.576   -19.401   -14.863   -12.828     6.107     7.596
  
  S   O    1    0.8326    0.0065   -0.4043   -0.0000   -0.3767   -0.0372
  Px  O    1    0.1037    0.6162    0.5066    0.1358   -0.3494    0.4608
  Py  O    1    0.1356   -0.4822    0.6295    0.2533   -0.3436   -0.4131
  Pz  O    1   -0.0506    0.0401   -0.2383    0.9578    0.1404    0.0439
  S   H    2    0.3664    0.4420    0.2542    0.0000    0.5942   -0.5026
  S   H    3    0.3753   -0.4367    0.2492    0.0000    0.4951    0.6010


              NET ATOMIC CHARGES AND DIPOLE CONTRIBUTIONS

  ATOM NO.   TYPE          CHARGE      No. of ELECS.   s-Pop       p-Pop       
    1          O          -0.424046        6.4240     1.71345     4.71059
    2          H           0.211450        0.7886     0.78855
    3          H           0.212596        0.7874     0.78740
 DIPOLE           X         Y         Z       TOTAL
 POINT-CHG.     0.761     0.932    -0.354     1.254
 HYBRID         0.738     0.934    -0.352     1.241
 SUM            1.500     1.866    -0.706     2.496


          ATOMIC ORBITAL ELECTRON POPULATIONS

     Atom    s        px        py        pz   
    1  O   1.71345   1.33123   1.42265   1.95672
    2  H   0.78855
    3  H   0.78740

 **********************
 *                    *
 * JOB ENDED NORMALLY *
 *                    *
 **********************



 TOTAL JOB TIME:             0.04 SECONDS

 == MOPAC DONE ==


          MOPAC Job: "./h2oTraj/h2o_47.mop" ended normally on Jun  1, 2023, at 14:01.

rm: cannot remove ‘./h2oTraj/h2o_47.cim’: No such file or directory
rm: cannot remove ‘./h2oTraj/h2o_47.end’: No such file or directory
rm: cannot remove ‘./h2oTraj/h2o_47.log’: No such file or directory
rm: cannot remove ‘./h2oTraj/h2o_47.temp’: No such file or directory
rm: cannot remove ‘./h2oTraj/h2o_47.ple’: No such file or directory
rm: cannot remove ‘./h2oTraj/h2o_47.sts’: No such file or directory
