 *******************************************************************************
 ** Site#:    0         For non-commercial use only    Version 20.173L 64BITS **
 *******************************************************************************
 ** Cite this program as: MOPAC2016, Version: 20.173L, James J. P. Stewart,   **
 ** Stewart Computational Chemistry, web-site: HTTP://OpenMOPAC.net.          **
 *******************************************************************************
 **                                                                           **
 **                                MOPAC2016                                  **
 **                                                                           **
 *******************************************************************************

                              INDO CALCULATION RESULTS

 *******************************************************************************
 *  CALCULATION DONE:                                Thu Jun  1 14:00:57 2023  *
 *  INDO       - The INDO Hamiltonian to be used
 *
 *
 *
 *                 CHARGE ON SYSTEM = 0
 *
 *
 *
 *  C.I.=(N,M) - 2 DOUBLY FILLED LEVELS USED IN A C.I. INVOLVING 4 M.O.'S
 *  T=         - A TIME OF 172800.0 SECONDS REQUESTED
 *  DUMP=N     - RESTART FILE WRITTEN EVERY 7200.0 SECONDS REQUESTED
 *  RELSCF     - DEFAULT SCF CRITERION MULTIPLIED BY 0.0000
 *              (DEFAULT SCF CRITERION = 0.00010)
 *  ALLVEC     - PRINT ALL EIGENVECTORS
 **********
 *  WARNING: Specified print options may not behave as expected with INDO
 **********
 *******************************************************************************
INDO C.I.=(4,2) AllVEC CHARGE=0 RELSCF=0.000001


   ATOM   CHEMICAL          X               Y               Z
  NUMBER   SYMBOL      (ANGSTROMS)     (ANGSTROMS)     (ANGSTROMS)
 
     1       O         -1.05142480  *   0.46313348  *   0.01541865  *
     2       H         -0.09309694  *   0.45413163  *  -0.13117516  *
     3       H         -1.30025686  *   1.41049155  *  -0.11356527  *
 


          CARTESIAN COORDINATES 

    NO.       ATOM           X           Y           Z

     1         O         -1.0514      0.4631      0.0154
     2         H         -0.0931      0.4541     -0.1312
     3         H         -1.3003      1.4105     -0.1136

           Empirical Formula: H2 O  =     3 atoms



      MOLECULAR POINT GROUP   :   C2v 


      RHF CALCULATION, NO. OF DOUBLY OCCUPIED LEVELS = 4

 WARNING: INDO only performs single-point calculations
  SCF CRITERION =    0.1000E-09

 Summary of symmetry occupancy in each shell:

 SHELL     
    1    4
    v    2
 TOTAL   6




    ROOT NO.    1           2           3           4           5           6

           -40.47244   -19.52873   -14.76240   -12.81635     6.01352     7.65605
  
  
  S  O   1   0.83463    -0.00673    -0.39798     0.00000    -0.37914    -0.03489
 PX  O   1   0.10757     0.61654     0.50489     0.15053    -0.25676    -0.51459
 PY  O   1   0.13181    -0.47927     0.65185     0.17208    -0.41794     0.35176
 PZ  O   1  -0.03993    -0.01062    -0.19329     0.97351     0.11358     0.01739
  
  S  H   2   0.37394     0.43885     0.24689    -0.00000     0.50140     0.59601
  
  S  H   3   0.36473    -0.44433     0.25194    -0.00000     0.59275    -0.50469


 Reference determinate nber   1 is ALPHA 1 -   4
 SINGLE excitations FROM orbs   3 to   4 INTO orbs   5 to   6
 

 CI excitations=    5:        =  5
 The lowest    5 spin-adapted configurations of multiplicity=  1
     sym   eV   cm**-1 -dets- dipole oscilator X FRAG ....Excitations named from first reference determinate
                       tot  #  Debye  strength
 
   1      0.000      0.  1  1  2.4676 0.000000 0  0 (     )->       )
   2     10.863  87616.  1  1  0.4666 0.030799 1  1 (   4 )->   5   )
   3     11.716  94493.  1  1  0.8138 0.000281 1  1 (   4 )->   6   )
   4     13.697 110478.  1  1  0.7630 0.038966 1  1 (   3 )->   5   )
   5     14.543 117297.  1  1  0.4354 0.220402 1  1 (   3 )->   6   )

 Depression of ground-state after CI=          0. cm**-1 Energy=  -464.1333865 eV
 Dipole moment=  1.471740  1.898911 -0.563236 tot=  2.467614 Debyes


  CI trans.  energy frequency wavelength oscillator ---------polarization---------    dipole   ------components----- 
 st.  symm.    eV      cm-1       nm      strength       x          y         z       moment     x       y       z 

   2     10.8593299    87587.    114.17  0.030288   0.150533   0.172084   0.973513  0.797079   0.688  -0.400  -0.036
   3     11.7193038    94523.    105.79  0.000822   0.150537   0.172083   0.973512  1.022755  -0.185   0.995  -0.147
   4     13.6956015   110463.     90.53  0.041063  -0.308598  -0.927349   0.211642  0.920571   0.170  -0.895   0.132
   5     14.5447686   117312.     85.24  0.218198   0.811664  -0.583697  -0.022329  0.676194  -0.553   0.389   0.017
 
 Polarizability (au  ) xx=    1.57 xy=   -0.93 yy=    1.22 xz=    0.01 yz=    0.03 zz=    0.58
 Polarizability (A**3) xx=    0.23 xy=   -0.14 yy=    0.18 xz=    0.00 yz=    0.00 zz=    0.09
 ***********************************
 ***********************************
 CI Matrix
  1.0000000000  0.0000000000  0.0000000000  0.0000000000  0.0000000000 
  0.0000000000 -0.9978564644  0.0654406331 -0.0000000809 -0.0000000052 
  0.0000000000 -0.0654406331 -0.9978564644 -0.0000000986 -0.0000000925 
  0.0000000000  0.0000000866  0.0000000887 -0.9988971338  0.0469522752 
  0.0000000000 -0.0000000153 -0.0000000962  0.0469522752  0.9988971338 
 ***********************************
 ***********************************
 
 
 Major CI contributions to CI states
 
State    1  0.0000     CI coeff  CI percent
    Config       1   1.00000000  1.00000000
 Total coeff printed             1.00000000
  
State    2 10.8593     CI coeff  CI percent
    Config       2  -0.99785646  0.99571752
    Config       3   0.06544063  0.00428248
 Total coeff printed             1.00000000
  
State    3 11.7193     CI coeff  CI percent
    Config       2  -0.06544063  0.00428248
    Config       3  -0.99785646  0.99571752
 Total coeff printed             1.00000000
  
State    4 13.6956     CI coeff  CI percent
    Config       4  -0.99889713  0.99779548
    Config       5   0.04695228  0.00220452
 Total coeff printed             1.00000000
  
State    5 14.5448     CI coeff  CI percent
    Config       4   0.04695228  0.00220452
    Config       5   0.99889713  0.99779548
 Total coeff printed             1.00000000
  

 -------------------------------------------------------------------------------
 INDO C.I.=(4,2) AllVEC CHARGE=0 RELSCF=0.000001




     1SCF WAS SPECIFIED, SO BFGS WAS NOT USED                 
     SCF FIELD WAS ACHIEVED                                   


                              INDO CALCULATION
                                                       MOPAC2016 (Version: 20.173L)
                                                       Thu Jun  1 14:00:57 2023




          FINAL HEAT OF FORMATION =      -8336.27977 KCAL/MOL =  -34878.99457 KJ/MOL


          TOTAL ENERGY            =       -368.59704 EV
          ELECTRONIC ENERGY       =       -464.13339 EV  POINT GROUP:     C2v 
          CORE-CORE REPULSION     =         95.53634 EV
          COSMO AREA              =         42.69 SQUARE ANGSTROMS
          COSMO VOLUME            =         25.38 CUBIC ANGSTROMS

          IONIZATION POTENTIAL    =         12.816353 EV
          HOMO LUMO ENERGIES (EV) =        -12.816  6.014
          NO. OF FILLED LEVELS    =          4
          MOLECULAR WEIGHT        =         18.0152

          MOLECULAR DIMENSIONS (Angstroms)

            Atom       Atom       Distance
            H     3    H     2     1.54018
            H     2    O     1     0.60401
            H     2    O     1     0.00000


          SCF CALCULATIONS        =          1
 
          WALL-CLOCK TIME         =          0.012 SECONDS
          COMPUTATION TIME        =          0.010 SECONDS




   ATOM   CHEMICAL          X               Y               Z
  NUMBER   SYMBOL      (ANGSTROMS)     (ANGSTROMS)     (ANGSTROMS)
 
     1       O         -1.05142480  *   0.46313348  *   0.01541865  *
     2       H         -0.09309694  *   0.45413163  *  -0.13117516  *
     3       H         -1.30025686  *   1.41049155  *  -0.11356527  *

                             CARTESIAN COORDINATES

   1    O       -1.051424805     0.463133475     0.015418647
   2    H       -0.093096940     0.454131634    -0.131175158
   3    H       -1.300256858     1.410491546    -0.113565271


           Empirical Formula: H2 O  =     3 atoms



      MOLECULAR POINT GROUP   :   C2v 


                EIGENVECTORS  


   Root No.       1         2         3         4         5         6

                 1 a1      1 b2      2 a1      1 b1      3 a1      2 b2  

               -40.472   -19.529   -14.762   -12.816     6.014     7.656
  
  S   O    1    0.8346   -0.0067   -0.3980    0.0000   -0.3791   -0.0349
  Px  O    1    0.1076    0.6165    0.5049    0.1505   -0.2568   -0.5146
  Py  O    1    0.1318   -0.4793    0.6519    0.1721   -0.4179    0.3518
  Pz  O    1   -0.0399   -0.0106   -0.1933    0.9735    0.1136    0.0174
  S   H    2    0.3739    0.4388    0.2469   -0.0000    0.5014    0.5960
  S   H    3    0.3647   -0.4443    0.2519   -0.0000    0.5928   -0.5047


              NET ATOMIC CHARGES AND DIPOLE CONTRIBUTIONS

  ATOM NO.   TYPE          CHARGE      No. of ELECS.   s-Pop       p-Pop       
    1          O          -0.425382        6.4254     1.71007     4.71532
    2          H           0.213251        0.7867     0.78675
    3          H           0.212131        0.7879     0.78787
 DIPOLE           X         Y         Z       TOTAL
 POINT-CHG.     0.728     0.956    -0.282     1.234
 HYBRID         0.744     0.943    -0.282     1.234
 SUM            1.472     1.899    -0.563     2.468


          ATOMIC ORBITAL ELECTRON POPULATIONS

     Atom    s        px        py        pz   
    1  O   1.71007   1.33853   1.40319   1.97359
    2  H   0.78675
    3  H   0.78787

 **********************
 *                    *
 * JOB ENDED NORMALLY *
 *                    *
 **********************



 TOTAL JOB TIME:             0.03 SECONDS

 == MOPAC DONE ==


          MOPAC Job: "./h2oTraj/h2o_27.mop" ended normally on Jun  1, 2023, at 14:00.

rm: cannot remove ‘./h2oTraj/h2o_27.cim’: No such file or directory
rm: cannot remove ‘./h2oTraj/h2o_27.end’: No such file or directory
rm: cannot remove ‘./h2oTraj/h2o_27.log’: No such file or directory
rm: cannot remove ‘./h2oTraj/h2o_27.temp’: No such file or directory
rm: cannot remove ‘./h2oTraj/h2o_27.ple’: No such file or directory
rm: cannot remove ‘./h2oTraj/h2o_27.sts’: No such file or directory
