 *******************************************************************************
 ** Site#:    0         For non-commercial use only    Version 20.173L 64BITS **
 *******************************************************************************
 ** Cite this program as: MOPAC2016, Version: 20.173L, James J. P. Stewart,   **
 ** Stewart Computational Chemistry, web-site: HTTP://OpenMOPAC.net.          **
 *******************************************************************************
 **                                                                           **
 **                                MOPAC2016                                  **
 **                                                                           **
 *******************************************************************************

                              INDO CALCULATION RESULTS

 *******************************************************************************
 *  CALCULATION DONE:                                Thu Jun  1 14:01:02 2023  *
 *  INDO       - The INDO Hamiltonian to be used
 *
 *
 *
 *                 CHARGE ON SYSTEM = 0
 *
 *
 *
 *  C.I.=(N,M) - 2 DOUBLY FILLED LEVELS USED IN A C.I. INVOLVING 4 M.O.'S
 *  T=         - A TIME OF 172800.0 SECONDS REQUESTED
 *  DUMP=N     - RESTART FILE WRITTEN EVERY 7200.0 SECONDS REQUESTED
 *  RELSCF     - DEFAULT SCF CRITERION MULTIPLIED BY 0.0000
 *              (DEFAULT SCF CRITERION = 0.00010)
 *  ALLVEC     - PRINT ALL EIGENVECTORS
 **********
 *  WARNING: Specified print options may not behave as expected with INDO
 **********
 *******************************************************************************
INDO C.I.=(4,2) AllVEC CHARGE=0 RELSCF=0.000001


   ATOM   CHEMICAL          X               Y               Z
  NUMBER   SYMBOL      (ANGSTROMS)     (ANGSTROMS)     (ANGSTROMS)
 
     1       O         -1.05502412  *   0.47206668  *   0.03023286  *
     2       H         -0.09622594  *   0.36128954  *  -0.21485026  *
     3       H         -1.23999585  *   1.36153672  *  -0.26503644  *
 


          CARTESIAN COORDINATES 

    NO.       ATOM           X           Y           Z

     1         O         -1.0550      0.4721      0.0302
     2         H         -0.0962      0.3613     -0.2149
     3         H         -1.2400      1.3615     -0.2650

           Empirical Formula: H2 O  =     3 atoms



      MOLECULAR POINT GROUP   :   C2v 


      RHF CALCULATION, NO. OF DOUBLY OCCUPIED LEVELS = 4

 WARNING: INDO only performs single-point calculations
  SCF CRITERION =    0.1000E-09

 Summary of symmetry occupancy in each shell:

 SHELL     
    1    4
    v    2
 TOTAL   6




    ROOT NO.    1           2           3           4           5           6

           -40.59871   -19.44279   -14.83518   -12.82606     6.06619     7.68359
  
  
  S  O   1   0.83264     0.01457    -0.40276    -0.00000    -0.37162    -0.07860
 PX  O   1   0.10201     0.57888     0.51862     0.26979    -0.39463     0.39625
 PY  O   1   0.12203    -0.52607     0.55095     0.35344    -0.24518    -0.46880
 PZ  O   1  -0.07888     0.03323    -0.37361     0.89571     0.21561     0.06563
  
  S  H   2   0.36076     0.44578     0.25618     0.00000     0.64133    -0.44068
  
  S  H   3   0.38085    -0.43372     0.24507     0.00000     0.43388     0.64694


 Reference determinate nber   1 is ALPHA 1 -   4
 SINGLE excitations FROM orbs   3 to   4 INTO orbs   5 to   6
 

 CI excitations=    5:        =  5
 The lowest    5 spin-adapted configurations of multiplicity=  1
     sym   eV   cm**-1 -dets- dipole oscilator X FRAG ....Excitations named from first reference determinate
                       tot  #  Debye  strength
 
   1      0.000      0.  1  1  2.4874 0.000000 0  0 (     )->       )
   2     10.888  87817.  1  1  1.0089 0.029657 1  1 (   4 )->   5   )
   3     11.772  94948.  1  1  1.1496 0.001434 1  1 (   4 )->   6   )
   4     13.806 111353.  1  1  1.1496 0.049784 1  1 (   3 )->   5   )
   5     14.659 118235.  1  1  0.9581 0.213525 1  1 (   3 )->   6   )

 Depression of ground-state after CI=          0. cm**-1 Energy=  -464.4844126 eV
 Dipole moment=  1.527042  1.625477 -1.101365 tot=  2.487376 Debyes


  CI trans.  energy frequency wavelength oscillator ---------polarization---------    dipole   ------components----- 
 st.  symm.    eV      cm-1       nm      strength       x          y         z       moment     x       y       z 

   2     10.8713400    87683.    114.05  0.027430   0.269792   0.353444   0.895706  1.615699  -1.104   1.172  -0.130
   3     11.7885839    95082.    105.17  0.003802   0.269794   0.353442   0.895707  1.665999   1.536  -0.604  -0.224
   4     13.7968741   111280.     89.86  0.059492  -0.934800  -0.127013   0.331686  1.557918  -1.432   0.580   0.202
   5     14.6682773   118308.     84.53  0.203301  -0.678163   0.730114  -0.083835  1.426914   1.014  -1.000   0.089
 
 Polarizability (au  ) xx=    1.61 xy=   -0.90 yy=    1.20 xz=    0.04 yz=    0.02 zz=    0.55
 Polarizability (A**3) xx=    0.24 xy=   -0.13 yy=    0.18 xz=    0.01 yz=    0.00 zz=    0.08
 ***********************************
 ***********************************
 CI Matrix
  1.0000000000  0.0000000000  0.0000000000  0.0000000000  0.0000000000 
  0.0000000000 -0.9909106221  0.1345218907  0.0000001679 -0.0000000177 
  0.0000000000 -0.1345218907 -0.9909106221  0.0000001099  0.0000001894 
  0.0000000000 -0.0000001794 -0.0000000665 -0.9947859128  0.1019852329 
  0.0000000000  0.0000000264  0.0000001979  0.1019852329  0.9947859128 
 ***********************************
 ***********************************
 
 
 Major CI contributions to CI states
 
State    1  0.0000     CI coeff  CI percent
    Config       1   1.00000000  1.00000000
 Total coeff printed             1.00000000
  
State    2 10.8713     CI coeff  CI percent
    Config       2  -0.99091062  0.98190386
    Config       3   0.13452189  0.01809614
 Total coeff printed             1.00000000
  
State    3 11.7886     CI coeff  CI percent
    Config       2  -0.13452189  0.01809614
    Config       3  -0.99091062  0.98190386
 Total coeff printed             1.00000000
  
State    4 13.7969     CI coeff  CI percent
    Config       4  -0.99478591  0.98959901
    Config       5   0.10198523  0.01040099
 Total coeff printed             1.00000000
  
State    5 14.6683     CI coeff  CI percent
    Config       4   0.10198523  0.01040099
    Config       5   0.99478591  0.98959901
 Total coeff printed             1.00000000
  

 -------------------------------------------------------------------------------
 INDO C.I.=(4,2) AllVEC CHARGE=0 RELSCF=0.000001




     1SCF WAS SPECIFIED, SO BFGS WAS NOT USED                 
     SCF FIELD WAS ACHIEVED                                   


                              INDO CALCULATION
                                                       MOPAC2016 (Version: 20.173L)
                                                       Thu Jun  1 14:01:02 2023




          FINAL HEAT OF FORMATION =      -8340.43959 KCAL/MOL =  -34896.39923 KJ/MOL


          TOTAL ENERGY            =       -368.77743 EV
          ELECTRONIC ENERGY       =       -464.48441 EV  POINT GROUP:     C2v 
          CORE-CORE REPULSION     =         95.70698 EV
          COSMO AREA              =         42.90 SQUARE ANGSTROMS
          COSMO VOLUME            =         25.50 CUBIC ANGSTROMS

          IONIZATION POTENTIAL    =         12.826056 EV
          HOMO LUMO ENERGIES (EV) =        -12.826  6.066
          NO. OF FILLED LEVELS    =          4
          MOLECULAR WEIGHT        =         18.0152

          MOLECULAR DIMENSIONS (Angstroms)

            Atom       Atom       Distance
            H     3    H     2     1.52027
            O     1    H     3     0.61124
            H     2    H     3     0.00000


          SCF CALCULATIONS        =          1
 
          WALL-CLOCK TIME         =          0.020 SECONDS
          COMPUTATION TIME        =          0.011 SECONDS




   ATOM   CHEMICAL          X               Y               Z
  NUMBER   SYMBOL      (ANGSTROMS)     (ANGSTROMS)     (ANGSTROMS)
 
     1       O         -1.05502412  *   0.47206668  *   0.03023286  *
     2       H         -0.09622594  *   0.36128954  *  -0.21485026  *
     3       H         -1.23999585  *   1.36153672  *  -0.26503644  *

                             CARTESIAN COORDINATES

   1    O       -1.055024121     0.472066681     0.030232862
   2    H       -0.096225939     0.361289535    -0.214850257
   3    H       -1.239995847     1.361536721    -0.265036437


           Empirical Formula: H2 O  =     3 atoms



      MOLECULAR POINT GROUP   :   C2v 


                EIGENVECTORS  


   Root No.       1         2         3         4         5         6

                 1 a1      1 b2      2 a1      1 b1      3 a1      2 b2  

               -40.599   -19.443   -14.835   -12.826     6.066     7.684
  
  S   O    1    0.8326    0.0146   -0.4028   -0.0000   -0.3716   -0.0786
  Px  O    1    0.1020    0.5789    0.5186    0.2698   -0.3946    0.3962
  Py  O    1    0.1220   -0.5261    0.5510    0.3534   -0.2452   -0.4688
  Pz  O    1   -0.0789    0.0332   -0.3736    0.8957    0.2156    0.0656
  S   H    2    0.3608    0.4458    0.2562    0.0000    0.6413   -0.4407
  S   H    3    0.3808   -0.4337    0.2451    0.0000    0.4339    0.6469


              NET ATOMIC CHARGES AND DIPOLE CONTRIBUTIONS

  ATOM NO.   TYPE          CHARGE      No. of ELECS.   s-Pop       p-Pop       
    1          O          -0.424590        6.4246     1.71144     4.71315
    2          H           0.211015        0.7890     0.78898
    3          H           0.213575        0.7864     0.78643
 DIPOLE           X         Y         Z       TOTAL
 POINT-CHG.     0.782     0.800    -0.551     1.247
 HYBRID         0.745     0.825    -0.550     1.241
 SUM            1.527     1.626    -1.101     2.488


          ATOMIC ORBITAL ELECTRON POPULATIONS

     Atom    s        px        py        pz   
    1  O   1.71144   1.37451   1.44023   1.89841
    2  H   0.78898
    3  H   0.78643

 **********************
 *                    *
 * JOB ENDED NORMALLY *
 *                    *
 **********************



 TOTAL JOB TIME:             0.04 SECONDS

 == MOPAC DONE ==


          MOPAC Job: "./h2oTraj/h2o_70.mop" ended normally on Jun  1, 2023, at 14:01.

rm: cannot remove ‘./h2oTraj/h2o_70.cim’: No such file or directory
rm: cannot remove ‘./h2oTraj/h2o_70.end’: No such file or directory
rm: cannot remove ‘./h2oTraj/h2o_70.log’: No such file or directory
rm: cannot remove ‘./h2oTraj/h2o_70.temp’: No such file or directory
rm: cannot remove ‘./h2oTraj/h2o_70.ple’: No such file or directory
rm: cannot remove ‘./h2oTraj/h2o_70.sts’: No such file or directory
