 *******************************************************************************
 ** Site#:    0         For non-commercial use only    Version 20.173L 64BITS **
 *******************************************************************************
 ** Cite this program as: MOPAC2016, Version: 20.173L, James J. P. Stewart,   **
 ** Stewart Computational Chemistry, web-site: HTTP://OpenMOPAC.net.          **
 *******************************************************************************
 **                                                                           **
 **                                MOPAC2016                                  **
 **                                                                           **
 *******************************************************************************

                              INDO CALCULATION RESULTS

 *******************************************************************************
 *  CALCULATION DONE:                                Thu Jun  1 14:01:01 2023  *
 *  INDO       - The INDO Hamiltonian to be used
 *
 *
 *
 *                 CHARGE ON SYSTEM = 0
 *
 *
 *
 *  C.I.=(N,M) - 2 DOUBLY FILLED LEVELS USED IN A C.I. INVOLVING 4 M.O.'S
 *  T=         - A TIME OF 172800.0 SECONDS REQUESTED
 *  DUMP=N     - RESTART FILE WRITTEN EVERY 7200.0 SECONDS REQUESTED
 *  RELSCF     - DEFAULT SCF CRITERION MULTIPLIED BY 0.0000
 *              (DEFAULT SCF CRITERION = 0.00010)
 *  ALLVEC     - PRINT ALL EIGENVECTORS
 **********
 *  WARNING: Specified print options may not behave as expected with INDO
 **********
 *******************************************************************************
INDO C.I.=(4,2) AllVEC CHARGE=0 RELSCF=0.000001


   ATOM   CHEMICAL          X               Y               Z
  NUMBER   SYMBOL      (ANGSTROMS)     (ANGSTROMS)     (ANGSTROMS)
 
     1       O         -1.05058974  *   0.47086953  *   0.02783918  *
     2       H         -0.12361898  *   0.37117499  *  -0.18097831  *
     3       H         -1.28298985  *   1.37065367  *  -0.26091348  *
 


          CARTESIAN COORDINATES 

    NO.       ATOM           X           Y           Z

     1         O         -1.0506      0.4709      0.0278
     2         H         -0.1236      0.3712     -0.1810
     3         H         -1.2830      1.3707     -0.2609

           Empirical Formula: H2 O  =     3 atoms



      MOLECULAR POINT GROUP   :   C2v 


      RHF CALCULATION, NO. OF DOUBLY OCCUPIED LEVELS = 4

 WARNING: INDO only performs single-point calculations
  SCF CRITERION =    0.1000E-09

 Summary of symmetry occupancy in each shell:

 SHELL     
    1    4
    v    2
 TOTAL   6




    ROOT NO.    1           2           3           4           5           6

           -40.75352   -19.74412   -14.68237   -12.81276     6.17630     7.92807
  
  
  S  O   1   0.83276    -0.00625    -0.39462    -0.00000    -0.38691    -0.03229
 PX  O   1   0.10777     0.59396     0.51338     0.24158    -0.25983    -0.49615
 PY  O   1   0.11478    -0.50410     0.57599     0.35253    -0.36398     0.37971
 PZ  O   1  -0.07355     0.03786    -0.36178     0.90408     0.21135    -0.01548
  
  S  H   2   0.37609     0.43969     0.24073     0.00000     0.50751     0.59137
  
  S  H   3   0.36723    -0.44530     0.24518     0.00000     0.58998    -0.50858


 Reference determinate nber   1 is ALPHA 1 -   4
 SINGLE excitations FROM orbs   3 to   4 INTO orbs   5 to   6
 

 CI excitations=    5:        =  5
 The lowest    5 spin-adapted configurations of multiplicity=  1
     sym   eV   cm**-1 -dets- dipole oscilator X FRAG ....Excitations named from first reference determinate
                       tot  #  Debye  strength
 
   1      0.000      0.  1  1  2.4390 0.000000 0  0 (     )->       )
   2     11.037  89018.  1  1  0.4299 0.032587 1  1 (   4 )->   5   )
   3     11.950  96381.  1  1  0.8212 0.000246 1  1 (   4 )->   6   )
   4     13.718 110644.  1  1  0.7490 0.031026 1  1 (   3 )->   5   )
   5     14.668 118308.  1  1  0.3934 0.211766 1  1 (   3 )->   6   )

 Depression of ground-state after CI=          0. cm**-1 Energy=  -465.5123766 eV
 Dipole moment=  1.468756  1.649027 -1.035461 tot=  2.438998 Debyes


  CI trans.  energy frequency wavelength oscillator ---------polarization---------    dipole   ------components----- 
 st.  symm.    eV      cm-1       nm      strength       x          y         z       moment     x       y       z 

   2     11.0336352    88992.    112.37  0.032149   0.241575   0.352527   0.904083  0.724436   0.619  -0.377  -0.018
   3     11.9528354    96406.    103.73  0.000710   0.241570   0.352529   0.904083  0.992563  -0.083   0.929  -0.340
   4     13.7166559   110633.     90.39  0.032497  -0.335086  -0.844062   0.418660  0.866436   0.074  -0.811   0.296
   5     14.6696091   118319.     84.52  0.210208   0.778344  -0.626781   0.036422  0.587859  -0.464   0.361  -0.017
 
 Polarizability (au  ) xx=    1.39 xy=   -0.90 yy=    1.20 xz=    0.14 yz=    0.01 zz=    0.56
 Polarizability (A**3) xx=    0.21 xy=   -0.13 yy=    0.18 xz=    0.02 yz=    0.00 zz=    0.08
 ***********************************
 ***********************************
 CI Matrix
  1.0000000000  0.0000000000  0.0000000000  0.0000000000  0.0000000000 
  0.0000000000 -0.9982863787  0.0585175704  0.0000001214  0.0000000040 
  0.0000000000 -0.0585175704 -0.9982863787  0.0000001208  0.0000001352 
  0.0000000000 -0.0000001277 -0.0000001083 -0.9992882000  0.0377239081 
  0.0000000000  0.0000000168  0.0000001389  0.0377239081  0.9992882000 
 ***********************************
 ***********************************
 
 
 Major CI contributions to CI states
 
State    1  0.0000     CI coeff  CI percent
    Config       1   1.00000000  1.00000000
 Total coeff printed             1.00000000
  
State    2 11.0336     CI coeff  CI percent
    Config       2  -0.99828638  0.99657569
    Config       3   0.05851757  0.00342431
 Total coeff printed             1.00000000
  
State    3 11.9528     CI coeff  CI percent
    Config       2  -0.05851757  0.00342431
    Config       3  -0.99828638  0.99657569
 Total coeff printed             1.00000000
  
State    4 13.7167     CI coeff  CI percent
    Config       4  -0.99928820  0.99857691
 Total coeff printed             0.99857691
  
State    5 14.6696     CI coeff  CI percent
    Config       5   0.99928820  0.99857691
 Total coeff printed             0.99857691
  

 -------------------------------------------------------------------------------
 INDO C.I.=(4,2) AllVEC CHARGE=0 RELSCF=0.000001




     1SCF WAS SPECIFIED, SO BFGS WAS NOT USED                 
     SCF FIELD WAS ACHIEVED                                   


                              INDO CALCULATION
                                                       MOPAC2016 (Version: 20.173L)
                                                       Thu Jun  1 14:01:01 2023




          FINAL HEAT OF FORMATION =      -8354.75614 KCAL/MOL =  -34956.29969 KJ/MOL


          TOTAL ENERGY            =       -369.39825 EV
          ELECTRONIC ENERGY       =       -465.51238 EV  POINT GROUP:     C2v 
          CORE-CORE REPULSION     =         96.11412 EV
          COSMO AREA              =         42.48 SQUARE ANGSTROMS
          COSMO VOLUME            =         25.19 CUBIC ANGSTROMS

          IONIZATION POTENTIAL    =         12.812761 EV
          HOMO LUMO ENERGIES (EV) =        -12.813  6.176
          NO. OF FILLED LEVELS    =          4
          MOLECULAR WEIGHT        =         18.0152

          MOLECULAR DIMENSIONS (Angstroms)

            Atom       Atom       Distance
            H     3    H     2     1.53280
            H     2    O     1     0.58516
            O     1    H     3     0.00000


          SCF CALCULATIONS        =          1
 
          WALL-CLOCK TIME         =          0.016 SECONDS
          COMPUTATION TIME        =          0.010 SECONDS




   ATOM   CHEMICAL          X               Y               Z
  NUMBER   SYMBOL      (ANGSTROMS)     (ANGSTROMS)     (ANGSTROMS)
 
     1       O         -1.05058974  *   0.47086953  *   0.02783918  *
     2       H         -0.12361898  *   0.37117499  *  -0.18097831  *
     3       H         -1.28298985  *   1.37065367  *  -0.26091348  *

                             CARTESIAN COORDINATES

   1    O       -1.050589738     0.470869529     0.027839182
   2    H       -0.123618980     0.371174989    -0.180978307
   3    H       -1.282989852     1.370653672    -0.260913476


           Empirical Formula: H2 O  =     3 atoms



      MOLECULAR POINT GROUP   :   C2v 


                EIGENVECTORS  


   Root No.       1         2         3         4         5         6

                 1 a1      1 b2      2 a1      1 b1      3 a1      2 b2  

               -40.754   -19.744   -14.682   -12.813     6.176     7.928
  
  S   O    1    0.8328   -0.0062   -0.3946   -0.0000   -0.3869   -0.0323
  Px  O    1    0.1078    0.5940    0.5134    0.2416   -0.2598   -0.4962
  Py  O    1    0.1148   -0.5041    0.5760    0.3525   -0.3640    0.3797
  Pz  O    1   -0.0736    0.0379   -0.3618    0.9041    0.2114   -0.0155
  S   H    2    0.3761    0.4397    0.2407    0.0000    0.5075    0.5914
  S   H    3    0.3672   -0.4453    0.2452    0.0000    0.5900   -0.5086


              NET ATOMIC CHARGES AND DIPOLE CONTRIBUTIONS

  ATOM NO.   TYPE          CHARGE      No. of ELECS.   s-Pop       p-Pop       
    1          O          -0.428023        6.4280     1.69852     4.72950
    2          H           0.214559        0.7854     0.78544
    3          H           0.213464        0.7865     0.78654
 DIPOLE           X         Y         Z       TOTAL
 POINT-CHG.     0.717     0.820    -0.511     1.203
 HYBRID         0.752     0.829    -0.524     1.236
 SUM            1.469     1.649    -1.036     2.439


          ATOMIC ORBITAL ELECTRON POPULATIONS

     Atom    s        px        py        pz   
    1  O   1.69852   1.37264   1.44668   1.91018
    2  H   0.78544
    3  H   0.78654

 **********************
 *                    *
 * JOB ENDED NORMALLY *
 *                    *
 **********************



 TOTAL JOB TIME:             0.04 SECONDS

 == MOPAC DONE ==


          MOPAC Job: "./h2oTraj/h2o_64.mop" ended normally on Jun  1, 2023, at 14:01.

rm: cannot remove ‘./h2oTraj/h2o_64.cim’: No such file or directory
rm: cannot remove ‘./h2oTraj/h2o_64.end’: No such file or directory
rm: cannot remove ‘./h2oTraj/h2o_64.log’: No such file or directory
rm: cannot remove ‘./h2oTraj/h2o_64.temp’: No such file or directory
rm: cannot remove ‘./h2oTraj/h2o_64.ple’: No such file or directory
rm: cannot remove ‘./h2oTraj/h2o_64.sts’: No such file or directory
