 *******************************************************************************
 ** Site#:    0         For non-commercial use only    Version 20.173L 64BITS **
 *******************************************************************************
 ** Cite this program as: MOPAC2016, Version: 20.173L, James J. P. Stewart,   **
 ** Stewart Computational Chemistry, web-site: HTTP://OpenMOPAC.net.          **
 *******************************************************************************
 **                                                                           **
 **                                MOPAC2016                                  **
 **                                                                           **
 *******************************************************************************

                              INDO CALCULATION RESULTS

 *******************************************************************************
 *  CALCULATION DONE:                                Thu Jun  1 14:00:59 2023  *
 *  INDO       - The INDO Hamiltonian to be used
 *
 *
 *
 *                 CHARGE ON SYSTEM = 0
 *
 *
 *
 *  C.I.=(N,M) - 2 DOUBLY FILLED LEVELS USED IN A C.I. INVOLVING 4 M.O.'S
 *  T=         - A TIME OF 172800.0 SECONDS REQUESTED
 *  DUMP=N     - RESTART FILE WRITTEN EVERY 7200.0 SECONDS REQUESTED
 *  RELSCF     - DEFAULT SCF CRITERION MULTIPLIED BY 0.0000
 *              (DEFAULT SCF CRITERION = 0.00010)
 *  ALLVEC     - PRINT ALL EIGENVECTORS
 **********
 *  WARNING: Specified print options may not behave as expected with INDO
 **********
 *******************************************************************************
INDO C.I.=(4,2) AllVEC CHARGE=0 RELSCF=0.000001


   ATOM   CHEMICAL          X               Y               Z
  NUMBER   SYMBOL      (ANGSTROMS)     (ANGSTROMS)     (ANGSTROMS)
 
     1       O         -1.05066516  *   0.46427484  *   0.01906097  *
     2       H         -0.11268358  *   0.46004593  *  -0.16665882  *
     3       H         -1.29272812  *   1.38646037  *  -0.13589632  *
 


          CARTESIAN COORDINATES 

    NO.       ATOM           X           Y           Z

     1         O         -1.0507      0.4643      0.0191
     2         H         -0.1127      0.4600     -0.1667
     3         H         -1.2927      1.3865     -0.1359

           Empirical Formula: H2 O  =     3 atoms



      MOLECULAR POINT GROUP   :   C2v 


      RHF CALCULATION, NO. OF DOUBLY OCCUPIED LEVELS = 4

 WARNING: INDO only performs single-point calculations
  SCF CRITERION =    0.1000E-09

 Summary of symmetry occupancy in each shell:

 SHELL     
    1    4
    v    2
 TOTAL   6




    ROOT NO.    1           2           3           4           5           6

           -40.91366   -19.57570   -14.81869   -12.83028     6.32478     7.84790
  
  
  S  O   1   0.82985    -0.00336    -0.40350     0.00000    -0.38487    -0.01999
 PX  O   1   0.10593     0.61825     0.49442     0.19077    -0.26921    -0.50321
 PY  O   1   0.13426    -0.48069     0.64347     0.21116    -0.39983     0.36386
 PZ  O   1  -0.05065    -0.01715    -0.24012     0.95866     0.14164     0.01999
  
  S  H   2   0.37625     0.43801     0.24474    -0.00000     0.52076     0.57922
  
  S  H   3   0.37145    -0.44107     0.24722    -0.00000     0.57296    -0.52733


 Reference determinate nber   1 is ALPHA 1 -   4
 SINGLE excitations FROM orbs   3 to   4 INTO orbs   5 to   6
 

 CI excitations=    5:        =  5
 The lowest    5 spin-adapted configurations of multiplicity=  1
     sym   eV   cm**-1 -dets- dipole oscilator X FRAG ....Excitations named from first reference determinate
                       tot  #  Debye  strength
 
   1      0.000      0.  1  1  2.4771 0.000000 0  0 (     )->       )
   2     11.166  90058.  1  1  0.2827 0.032622 1  1 (   4 )->   5   )
   3     11.896  95946.  1  1  0.7449 0.000094 1  1 (   4 )->   6   )
   4     13.990 112841.  1  1  0.6746 0.036007 1  1 (   3 )->   5   )
   5     14.752 118983.  1  1  0.2469 0.214487 1  1 (   3 )->   6   )

 Depression of ground-state after CI=          0. cm**-1 Energy=  -465.8881240 eV
 Dipole moment=  1.447121  1.883560 -0.702850 tot=  2.477086 Debyes


  CI trans.  energy frequency wavelength oscillator ---------polarization---------    dipole   ------components----- 
 st.  symm.    eV      cm-1       nm      strength       x          y         z       moment     x       y       z 

   2     11.1642673    90046.    111.05  0.032405   0.190765   0.211159   0.958656  0.495352   0.452  -0.197  -0.047
   3     11.8972470    95958.    104.21  0.000321   0.190765   0.211159   0.958656  0.841121   0.047   0.818  -0.190
   4     13.9898188   112836.     88.62  0.036744  -0.416850  -0.866738   0.273863  0.741485  -0.052  -0.720   0.169
   5     14.7526445   118988.     84.04  0.213718   0.802753  -0.595628  -0.028545  0.395564  -0.337   0.205   0.022
 
 Polarizability (au  ) xx=    1.50 xy=   -0.87 yy=    1.11 xz=    0.01 yz=    0.06 zz=    0.57
 Polarizability (A**3) xx=    0.22 xy=   -0.13 yy=    0.16 xz=    0.00 yz=    0.01 zz=    0.08
 ***********************************
 ***********************************
 CI Matrix
  1.0000000000  0.0000000000  0.0000000000  0.0000000000  0.0000000000 
  0.0000000000 -0.9990247828  0.0441529545 -0.0000000000  0.0000000000 
  0.0000000000 -0.0441529545 -0.9990247828 -0.0000000000 -0.0000000000 
  0.0000000000  0.0000000000  0.0000000000 -0.9995673486  0.0294128472 
  0.0000000000 -0.0000000000 -0.0000000000  0.0294128472  0.9995673486 
 ***********************************
 ***********************************
 
 
 Major CI contributions to CI states
 
State    1  0.0000     CI coeff  CI percent
    Config       1   1.00000000  1.00000000
 Total coeff printed             1.00000000
  
State    2 11.1643     CI coeff  CI percent
    Config       2  -0.99902478  0.99805052
    Config       3   0.04415295  0.00194948
 Total coeff printed             1.00000000
  
State    3 11.8972     CI coeff  CI percent
    Config       2  -0.04415295  0.00194948
    Config       3  -0.99902478  0.99805052
 Total coeff printed             1.00000000
  
State    4 13.9898     CI coeff  CI percent
    Config       4  -0.99956735  0.99913488
 Total coeff printed             0.99913488
  
State    5 14.7526     CI coeff  CI percent
    Config       5   0.99956735  0.99913488
 Total coeff printed             0.99913488
  

 -------------------------------------------------------------------------------
 INDO C.I.=(4,2) AllVEC CHARGE=0 RELSCF=0.000001




     1SCF WAS SPECIFIED, SO BFGS WAS NOT USED                 
     SCF FIELD WAS ACHIEVED                                   


                              INDO CALCULATION
                                                       MOPAC2016 (Version: 20.173L)
                                                       Thu Jun  1 14:01:00 2023




          FINAL HEAT OF FORMATION =      -8358.97181 KCAL/MOL =  -34973.93803 KJ/MOL


          TOTAL ENERGY            =       -369.58106 EV
          ELECTRONIC ENERGY       =       -465.88812 EV  POINT GROUP:     C2v 
          CORE-CORE REPULSION     =         96.30706 EV
          COSMO AREA              =         42.64 SQUARE ANGSTROMS
          COSMO VOLUME            =         25.33 CUBIC ANGSTROMS

          IONIZATION POTENTIAL    =         12.830279 EV
          HOMO LUMO ENERGIES (EV) =        -12.830  6.325
          NO. OF FILLED LEVELS    =          4
          MOLECULAR WEIGHT        =         18.0152

          MOLECULAR DIMENSIONS (Angstroms)

            Atom       Atom       Distance
            H     3    H     2     1.50056
            H     2    O     1     0.60059
            O     1    H     3     0.00000


          SCF CALCULATIONS        =          1
 
          WALL-CLOCK TIME         =          0.523 SECONDS
          COMPUTATION TIME        =          0.010 SECONDS




   ATOM   CHEMICAL          X               Y               Z
  NUMBER   SYMBOL      (ANGSTROMS)     (ANGSTROMS)     (ANGSTROMS)
 
     1       O         -1.05066516  *   0.46427484  *   0.01906097  *
     2       H         -0.11268358  *   0.46004593  *  -0.16665882  *
     3       H         -1.29272812  *   1.38646037  *  -0.13589632  *

                             CARTESIAN COORDINATES

   1    O       -1.050665157     0.464274838     0.019060974
   2    H       -0.112683577     0.460045929    -0.166658825
   3    H       -1.292728123     1.386460371    -0.135896316


           Empirical Formula: H2 O  =     3 atoms



      MOLECULAR POINT GROUP   :   C2v 


                EIGENVECTORS  


   Root No.       1         2         3         4         5         6

                 1 a1      1 b2      2 a1      1 b1      3 a1      2 b2  

               -40.914   -19.576   -14.819   -12.830     6.325     7.848
  
  S   O    1    0.8298   -0.0034   -0.4035    0.0000   -0.3849   -0.0200
  Px  O    1    0.1059    0.6183    0.4944    0.1908   -0.2692   -0.5032
  Py  O    1    0.1343   -0.4807    0.6435    0.2112   -0.3998    0.3639
  Pz  O    1   -0.0507   -0.0171   -0.2401    0.9587    0.1416    0.0200
  S   H    2    0.3763    0.4380    0.2447   -0.0000    0.5208    0.5792
  S   H    3    0.3714   -0.4411    0.2472   -0.0000    0.5730   -0.5273


              NET ATOMIC CHARGES AND DIPOLE CONTRIBUTIONS

  ATOM NO.   TYPE          CHARGE      No. of ELECS.   s-Pop       p-Pop       
    1          O          -0.426110        6.4261     1.70296     4.72315
    2          H           0.213374        0.7866     0.78663
    3          H           0.212736        0.7873     0.78726
 DIPOLE           X         Y         Z       TOTAL
 POINT-CHG.     0.714     0.938    -0.349     1.229
 HYBRID         0.733     0.946    -0.354     1.248
 SUM            1.447     1.884    -0.703     2.477


          ATOMIC ORBITAL ELECTRON POPULATIONS

     Atom    s        px        py        pz   
    1  O   1.70296   1.34861   1.41546   1.95908
    2  H   0.78663
    3  H   0.78726

 **********************
 *                    *
 * JOB ENDED NORMALLY *
 *                    *
 **********************



 TOTAL JOB TIME:             1.29 SECONDS

 == MOPAC DONE ==


          MOPAC Job: "./h2oTraj/h2o_38.mop" ended normally on Jun  1, 2023, at 14:01.

rm: cannot remove ‘./h2oTraj/h2o_38.cim’: No such file or directory
rm: cannot remove ‘./h2oTraj/h2o_38.end’: No such file or directory
rm: cannot remove ‘./h2oTraj/h2o_38.log’: No such file or directory
rm: cannot remove ‘./h2oTraj/h2o_38.temp’: No such file or directory
rm: cannot remove ‘./h2oTraj/h2o_38.ple’: No such file or directory
rm: cannot remove ‘./h2oTraj/h2o_38.sts’: No such file or directory
