 *******************************************************************************
 ** Site#:    0         For non-commercial use only    Version 20.173L 64BITS **
 *******************************************************************************
 ** Cite this program as: MOPAC2016, Version: 20.173L, James J. P. Stewart,   **
 ** Stewart Computational Chemistry, web-site: HTTP://OpenMOPAC.net.          **
 *******************************************************************************
 **                                                                           **
 **                                MOPAC2016                                  **
 **                                                                           **
 *******************************************************************************

                              INDO CALCULATION RESULTS

 *******************************************************************************
 *  CALCULATION DONE:                                Thu Jun  1 14:01:01 2023  *
 *  INDO       - The INDO Hamiltonian to be used
 *
 *
 *
 *                 CHARGE ON SYSTEM = 0
 *
 *
 *
 *  C.I.=(N,M) - 2 DOUBLY FILLED LEVELS USED IN A C.I. INVOLVING 4 M.O.'S
 *  T=         - A TIME OF 172800.0 SECONDS REQUESTED
 *  DUMP=N     - RESTART FILE WRITTEN EVERY 7200.0 SECONDS REQUESTED
 *  RELSCF     - DEFAULT SCF CRITERION MULTIPLIED BY 0.0000
 *              (DEFAULT SCF CRITERION = 0.00010)
 *  ALLVEC     - PRINT ALL EIGENVECTORS
 **********
 *  WARNING: Specified print options may not behave as expected with INDO
 **********
 *******************************************************************************
INDO C.I.=(4,2) AllVEC CHARGE=0 RELSCF=0.000001


   ATOM   CHEMICAL          X               Y               Z
  NUMBER   SYMBOL      (ANGSTROMS)     (ANGSTROMS)     (ANGSTROMS)
 
     1       O         -1.05269819  *   0.46678030  *   0.01839205  *
     2       H         -0.10325381  *   0.45412023  *  -0.12326666  *
     3       H         -1.26988758  *   1.35261676  *  -0.16867060  *
 


          CARTESIAN COORDINATES 

    NO.       ATOM           X           Y           Z

     1         O         -1.0527      0.4668      0.0184
     2         H         -0.1033      0.4541     -0.1233
     3         H         -1.2699      1.3526     -0.1687

           Empirical Formula: H2 O  =     3 atoms



      MOLECULAR POINT GROUP   :   C2v 


      RHF CALCULATION, NO. OF DOUBLY OCCUPIED LEVELS = 4

 WARNING: INDO only performs single-point calculations
  SCF CRITERION =    0.1000E-09

 Summary of symmetry occupancy in each shell:

 SHELL     
    1    4
    v    2
 TOTAL   6




    ROOT NO.    1           2           3           4           5           6

           -41.29153   -19.65851   -14.82904   -12.83812     6.54169     8.08087
  
  
  S  O   1   0.82623     0.00949    -0.40585     0.00000    -0.38589    -0.06023
 PX  O   1   0.10365     0.61466     0.51041     0.14642    -0.36848     0.44014
 PY  O   1   0.13884    -0.48683     0.63420     0.23862    -0.31446    -0.43092
 PZ  O   1  -0.05032     0.02726    -0.23548     0.96001     0.13436     0.03998
  
  S  H   2   0.37022     0.44315     0.24535    -0.00000     0.61923    -0.47214
  
  S  H   3   0.38436    -0.43357     0.23856    -0.00000     0.46361     0.62645


 Reference determinate nber   1 is ALPHA 1 -   4
 SINGLE excitations FROM orbs   3 to   4 INTO orbs   5 to   6
 

 CI excitations=    5:        =  5
 The lowest    5 spin-adapted configurations of multiplicity=  1
     sym   eV   cm**-1 -dets- dipole oscilator X FRAG ....Excitations named from first reference determinate
                       tot  #  Debye  strength
 
   1      0.000      0.  1  1  2.4749 0.000000 0  0 (     )->       )
   2     11.368  91687.  1  1  0.7538 0.033387 1  1 (   4 )->   5   )
   3     12.122  97770.  1  1  0.9925 0.000867 1  1 (   4 )->   6   )
   4     14.149 114122.  1  1  0.9557 0.037136 1  1 (   3 )->   5   )
   5     14.955 120620.  1  1  0.7075 0.203363 1  1 (   3 )->   6   )

 Depression of ground-state after CI=          0. cm**-1 Energy=  -467.4284538 eV
 Dipole moment=  1.492225  1.850794 -0.687630 tot=  2.474876 Debyes


  CI trans.  energy frequency wavelength oscillator ---------polarization---------    dipole   ------components----- 
 st.  symm.    eV      cm-1       nm      strength       x          y         z       moment     x       y       z 

   2     11.3553426    91587.    109.19  0.031529   0.146417   0.238625   0.960011  1.336975  -0.937   0.950  -0.093
   3     12.1342658    97870.    102.18  0.002814   0.146417   0.238625   0.960011  1.449656   1.416  -0.270  -0.149
   4     14.1439684   114079.     87.66  0.042744  -0.921415  -0.320218   0.220125  1.261867  -1.235   0.223   0.133
   5     14.9602081   120663.     82.88  0.197488  -0.741440   0.668908  -0.053185  1.088888   0.809  -0.727   0.057
 
 Polarizability (au  ) xx=    1.49 xy=   -0.81 yy=    0.96 xz=    0.06 yz=    0.03 zz=    0.57
 Polarizability (A**3) xx=    0.22 xy=   -0.12 yy=    0.14 xz=    0.01 yz=    0.00 zz=    0.08
 ***********************************
 ***********************************
 CI Matrix
  1.0000000000  0.0000000000  0.0000000000  0.0000000000  0.0000000000 
  0.0000000000 -0.9920096620  0.1261619216 -0.0000000000  0.0000000000 
  0.0000000000 -0.1261619216 -0.9920096620  0.0000000000 -0.0000000000 
  0.0000000000  0.0000000000 -0.0000000000 -0.9967557356  0.0804860453 
  0.0000000000 -0.0000000000 -0.0000000000  0.0804860453  0.9967557356 
 ***********************************
 ***********************************
 
 
 Major CI contributions to CI states
 
State    1  0.0000     CI coeff  CI percent
    Config       1   1.00000000  1.00000000
 Total coeff printed             1.00000000
  
State    2 11.3553     CI coeff  CI percent
    Config       2  -0.99200966  0.98408317
    Config       3   0.12616192  0.01591683
 Total coeff printed             1.00000000
  
State    3 12.1343     CI coeff  CI percent
    Config       2  -0.12616192  0.01591683
    Config       3  -0.99200966  0.98408317
 Total coeff printed             1.00000000
  
State    4 14.1440     CI coeff  CI percent
    Config       4  -0.99675574  0.99352200
    Config       5   0.08048605  0.00647800
 Total coeff printed             1.00000000
  
State    5 14.9602     CI coeff  CI percent
    Config       4   0.08048605  0.00647800
    Config       5   0.99675574  0.99352200
 Total coeff printed             1.00000000
  

 -------------------------------------------------------------------------------
 INDO C.I.=(4,2) AllVEC CHARGE=0 RELSCF=0.000001




     1SCF WAS SPECIFIED, SO BFGS WAS NOT USED                 
     SCF FIELD WAS ACHIEVED                                   


                              INDO CALCULATION
                                                       MOPAC2016 (Version: 20.173L)
                                                       Thu Jun  1 14:01:01 2023




          FINAL HEAT OF FORMATION =      -8378.90958 KCAL/MOL =  -35057.35769 KJ/MOL


          TOTAL ENERGY            =       -370.44565 EV
          ELECTRONIC ENERGY       =       -467.42845 EV  POINT GROUP:     C2v 
          CORE-CORE REPULSION     =         96.98281 EV
          COSMO AREA              =         42.35 SQUARE ANGSTROMS
          COSMO VOLUME            =         25.09 CUBIC ANGSTROMS

          IONIZATION POTENTIAL    =         12.838125 EV
          HOMO LUMO ENERGIES (EV) =        -12.838  6.542
          NO. OF FILLED LEVELS    =          4
          MOLECULAR WEIGHT        =         18.0152

          MOLECULAR DIMENSIONS (Angstroms)

            Atom       Atom       Distance
            H     3    H     2     1.47322
            H     2    O     1     0.59273
            O     1    H     2     0.00000


          SCF CALCULATIONS        =          1
 
          WALL-CLOCK TIME         =          0.070 SECONDS
          COMPUTATION TIME        =          0.010 SECONDS




   ATOM   CHEMICAL          X               Y               Z
  NUMBER   SYMBOL      (ANGSTROMS)     (ANGSTROMS)     (ANGSTROMS)
 
     1       O         -1.05269819  *   0.46678030  *   0.01839205  *
     2       H         -0.10325381  *   0.45412023  *  -0.12326666  *
     3       H         -1.26988758  *   1.35261676  *  -0.16867060  *

                             CARTESIAN COORDINATES

   1    O       -1.052698186     0.466780304     0.018392048
   2    H       -0.103253811     0.454120233    -0.123266660
   3    H       -1.269887582     1.352616760    -0.168670605


           Empirical Formula: H2 O  =     3 atoms



      MOLECULAR POINT GROUP   :   C2v 


                EIGENVECTORS  


   Root No.       1         2         3         4         5         6

                 1 a1      1 b2      2 a1      1 b1      3 a1      2 b2  

               -41.292   -19.659   -14.829   -12.838     6.542     8.081
  
  S   O    1    0.8262    0.0095   -0.4059    0.0000   -0.3859   -0.0602
  Px  O    1    0.1036    0.6147    0.5104    0.1464   -0.3685    0.4401
  Py  O    1    0.1388   -0.4868    0.6342    0.2386   -0.3145   -0.4309
  Pz  O    1   -0.0503    0.0273   -0.2355    0.9600    0.1344    0.0400
  S   H    2    0.3702    0.4431    0.2453   -0.0000    0.6192   -0.4721
  S   H    3    0.3844   -0.4336    0.2386   -0.0000    0.4636    0.6264


              NET ATOMIC CHARGES AND DIPOLE CONTRIBUTIONS

  ATOM NO.   TYPE          CHARGE      No. of ELECS.   s-Pop       p-Pop       
    1          O          -0.427477        6.4275     1.69494     4.73254
    2          H           0.212733        0.7873     0.78727
    3          H           0.214744        0.7853     0.78526
 DIPOLE           X         Y         Z       TOTAL
 POINT-CHG.     0.746     0.901    -0.338     1.217
 HYBRID         0.746     0.950    -0.350     1.258
 SUM            1.492     1.851    -0.688     2.475


          ATOMIC ORBITAL ELECTRON POPULATIONS

     Atom    s        px        py        pz   
    1  O   1.69494   1.34100   1.43085   1.96070
    2  H   0.78727
    3  H   0.78526

 **********************
 *                    *
 * JOB ENDED NORMALLY *
 *                    *
 **********************



 TOTAL JOB TIME:             0.14 SECONDS

 == MOPAC DONE ==


          MOPAC Job: "./h2oTraj/h2o_46.mop" ended normally on Jun  1, 2023, at 14:01.

rm: cannot remove ‘./h2oTraj/h2o_46.cim’: No such file or directory
rm: cannot remove ‘./h2oTraj/h2o_46.end’: No such file or directory
rm: cannot remove ‘./h2oTraj/h2o_46.log’: No such file or directory
rm: cannot remove ‘./h2oTraj/h2o_46.temp’: No such file or directory
rm: cannot remove ‘./h2oTraj/h2o_46.ple’: No such file or directory
rm: cannot remove ‘./h2oTraj/h2o_46.sts’: No such file or directory
