 *******************************************************************************
 ** Site#:    0         For non-commercial use only    Version 20.173L 64BITS **
 *******************************************************************************
 ** Cite this program as: MOPAC2016, Version: 20.173L, James J. P. Stewart,   **
 ** Stewart Computational Chemistry, web-site: HTTP://OpenMOPAC.net.          **
 *******************************************************************************
 **                                                                           **
 **                                MOPAC2016                                  **
 **                                                                           **
 *******************************************************************************

                              INDO CALCULATION RESULTS

 *******************************************************************************
 *  CALCULATION DONE:                                Thu Jun  1 14:01:06 2023  *
 *  INDO       - The INDO Hamiltonian to be used
 *
 *
 *
 *                 CHARGE ON SYSTEM = 0
 *
 *
 *
 *  C.I.=(N,M) - 2 DOUBLY FILLED LEVELS USED IN A C.I. INVOLVING 4 M.O.'S
 *  T=         - A TIME OF 172800.0 SECONDS REQUESTED
 *  DUMP=N     - RESTART FILE WRITTEN EVERY 7200.0 SECONDS REQUESTED
 *  RELSCF     - DEFAULT SCF CRITERION MULTIPLIED BY 0.0000
 *              (DEFAULT SCF CRITERION = 0.00010)
 *  ALLVEC     - PRINT ALL EIGENVECTORS
 **********
 *  WARNING: Specified print options may not behave as expected with INDO
 **********
 *******************************************************************************
INDO C.I.=(4,2) AllVEC CHARGE=0 RELSCF=0.000001


   ATOM   CHEMICAL          X               Y               Z
  NUMBER   SYMBOL      (ANGSTROMS)     (ANGSTROMS)     (ANGSTROMS)
 
     1       O         -1.04958215  *   0.47151599  *   0.03775849  *
     2       H         -0.13538018  *   0.37065701  *  -0.27390523  *
     3       H         -1.28722206  *   1.36091040  *  -0.32543583  *
 


          CARTESIAN COORDINATES 

    NO.       ATOM           X           Y           Z

     1         O         -1.0496      0.4715      0.0378
     2         H         -0.1354      0.3707     -0.2739
     3         H         -1.2872      1.3609     -0.3254

           Empirical Formula: H2 O  =     3 atoms



      MOLECULAR POINT GROUP   :   C2v 


      RHF CALCULATION, NO. OF DOUBLY OCCUPIED LEVELS = 4

 WARNING: INDO only performs single-point calculations
  SCF CRITERION =    0.1000E-09

 Summary of symmetry occupancy in each shell:

 SHELL     
    1    4
    v    2
 TOTAL   6




    ROOT NO.    1           2           3           4           5           6

           -40.50484   -19.35861   -14.87483   -12.82818     6.06315     7.53783
  
  
  S  O   1   0.83315    -0.00675    -0.40463    -0.00000    -0.37499    -0.03835
 PX  O   1   0.10193     0.59821     0.46645     0.33338    -0.23678    -0.49696
 PY  O   1   0.10925    -0.50562     0.52981     0.43141    -0.35779     0.37093
 PZ  O   1  -0.09676     0.02230    -0.45815     0.83830     0.27829     0.00675
  
  S  H   2   0.37481     0.43659     0.25045     0.00000     0.49303     0.60258
  
  S  H   3   0.36563    -0.44197     0.25570     0.00000     0.59563    -0.50082


 Reference determinate nber   1 is ALPHA 1 -   4
 SINGLE excitations FROM orbs   3 to   4 INTO orbs   5 to   6
 

 CI excitations=    5:        =  5
 The lowest    5 spin-adapted configurations of multiplicity=  1
     sym   eV   cm**-1 -dets- dipole oscilator X FRAG ....Excitations named from first reference determinate
                       tot  #  Debye  strength
 
   1      0.000      0.  1  1  2.5001 0.000000 0  0 (     )->       )
   2     10.894  87866.  1  1  0.5101 0.030213 1  1 (   4 )->   5   )
   3     11.627  93777.  1  1  0.8168 0.000337 1  1 (   4 )->   6   )
   4     13.868 111853.  1  1  0.7824 0.046066 1  1 (   3 )->   5   )
   5     14.574 117546.  1  1  0.4810 0.223374 1  1 (   3 )->   6   )

 Depression of ground-state after CI=          0. cm**-1 Energy=  -464.0223199 eV
 Dipole moment=  1.387067  1.572940 -1.361089 tot=  2.500132 Debyes


  CI trans.  energy frequency wavelength oscillator ---------polarization---------    dipole   ------components----- 
 st.  symm.    eV      cm-1       nm      strength       x          y         z       moment     x       y       z 

   2     10.8890909    87827.    113.86  0.029508   0.333381   0.431406   0.838299  0.909341   0.751  -0.512  -0.035
   3     11.6316846    93816.    106.59  0.001076   0.333377   0.431408   0.838300  1.091483  -0.295   0.978  -0.386
   4     13.8651546   111830.     89.42  0.049237  -0.250306  -0.816756   0.519863  1.003458   0.273  -0.898   0.354
   5     14.5766413   117569.     85.06  0.220074   0.791818  -0.610757  -0.000589  0.794282  -0.633   0.479   0.005
 
 Polarizability (au  ) xx=    1.54 xy=   -0.91 yy=    1.34 xz=    0.08 yz=   -0.03 zz=    0.55
 Polarizability (A**3) xx=    0.23 xy=   -0.14 yy=    0.20 xz=    0.01 yz=   -0.01 zz=    0.08
 ***********************************
 ***********************************
 CI Matrix
  1.0000000000  0.0000000000  0.0000000000  0.0000000000  0.0000000000 
  0.0000000000 -0.9967398403  0.0806826547  0.0000001302  0.0000000051 
  0.0000000000 -0.0806826547 -0.9967398403  0.0000001376  0.0000001482 
  0.0000000000 -0.0000001396 -0.0000001172 -0.9980428592  0.0625335998 
  0.0000000000  0.0000000258  0.0000001550  0.0625335998  0.9980428592 
 ***********************************
 ***********************************
 
 
 Major CI contributions to CI states
 
State    1  0.0000     CI coeff  CI percent
    Config       1   1.00000000  1.00000000
 Total coeff printed             1.00000000
  
State    2 10.8891     CI coeff  CI percent
    Config       2  -0.99673984  0.99349031
    Config       3   0.08068265  0.00650969
 Total coeff printed             1.00000000
  
State    3 11.6317     CI coeff  CI percent
    Config       2  -0.08068265  0.00650969
    Config       3  -0.99673984  0.99349031
 Total coeff printed             1.00000000
  
State    4 13.8652     CI coeff  CI percent
    Config       4  -0.99804286  0.99608955
    Config       5   0.06253360  0.00391045
 Total coeff printed             1.00000000
  
State    5 14.5766     CI coeff  CI percent
    Config       4   0.06253360  0.00391045
    Config       5   0.99804286  0.99608955
 Total coeff printed             1.00000000
  

 -------------------------------------------------------------------------------
 INDO C.I.=(4,2) AllVEC CHARGE=0 RELSCF=0.000001




     1SCF WAS SPECIFIED, SO BFGS WAS NOT USED                 
     SCF FIELD WAS ACHIEVED                                   


                              INDO CALCULATION
                                                       MOPAC2016 (Version: 20.173L)
                                                       Thu Jun  1 14:01:06 2023




          FINAL HEAT OF FORMATION =      -8334.21020 KCAL/MOL =  -34870.33550 KJ/MOL


          TOTAL ENERGY            =       -368.50730 EV
          ELECTRONIC ENERGY       =       -464.02232 EV  POINT GROUP:     C2v 
          CORE-CORE REPULSION     =         95.51502 EV
          COSMO AREA              =         42.85 SQUARE ANGSTROMS
          COSMO VOLUME            =         25.53 CUBIC ANGSTROMS

          IONIZATION POTENTIAL    =         12.828177 EV
          HOMO LUMO ENERGIES (EV) =        -12.828  6.063
          NO. OF FILLED LEVELS    =          4
          MOLECULAR WEIGHT        =         18.0152

          MOLECULAR DIMENSIONS (Angstroms)

            Atom       Atom       Distance
            H     3    H     2     1.51987
            O     1    H     3     0.61935
            O     1    H     2     0.00000


          SCF CALCULATIONS        =          1
 
          WALL-CLOCK TIME         =          0.051 SECONDS
          COMPUTATION TIME        =          0.010 SECONDS




   ATOM   CHEMICAL          X               Y               Z
  NUMBER   SYMBOL      (ANGSTROMS)     (ANGSTROMS)     (ANGSTROMS)
 
     1       O         -1.04958215  *   0.47151599  *   0.03775849  *
     2       H         -0.13538018  *   0.37065701  *  -0.27390523  *
     3       H         -1.28722206  *   1.36091040  *  -0.32543583  *

                             CARTESIAN COORDINATES

   1    O       -1.049582153     0.471515988     0.037758487
   2    H       -0.135380184     0.370657010    -0.273905231
   3    H       -1.287222061     1.360910399    -0.325435827


           Empirical Formula: H2 O  =     3 atoms



      MOLECULAR POINT GROUP   :   C2v 


                EIGENVECTORS  


   Root No.       1         2         3         4         5         6

                 1 a1      1 b2      2 a1      1 b1      3 a1      2 b2  

               -40.505   -19.359   -14.875   -12.828     6.063     7.538
  
  S   O    1    0.8332   -0.0067   -0.4046   -0.0000   -0.3750   -0.0384
  Px  O    1    0.1019    0.5982    0.4664    0.3334   -0.2368   -0.4970
  Py  O    1    0.1093   -0.5056    0.5298    0.4314   -0.3578    0.3709
  Pz  O    1   -0.0968    0.0223   -0.4582    0.8383    0.2783    0.0067
  S   H    2    0.3748    0.4366    0.2504    0.0000    0.4930    0.6026
  S   H    3    0.3656   -0.4420    0.2557    0.0000    0.5956   -0.5008


              NET ATOMIC CHARGES AND DIPOLE CONTRIBUTIONS

  ATOM NO.   TYPE          CHARGE      No. of ELECS.   s-Pop       p-Pop       
    1          O          -0.423568        6.4236     1.71583     4.70774
    2          H           0.212368        0.7876     0.78763
    3          H           0.211200        0.7888     0.78880
 DIPOLE           X         Y         Z       TOTAL
 POINT-CHG.     0.691     0.799    -0.686     1.260
 HYBRID         0.696     0.774    -0.675     1.240
 SUM            1.387     1.573    -1.361     2.500


          ATOMIC ORBITAL ELECTRON POPULATIONS

     Atom    s        px        py        pz   
    1  O   1.71583   1.39393   1.46879   1.84501
    2  H   0.78763
    3  H   0.78880

 **********************
 *                    *
 * JOB ENDED NORMALLY *
 *                    *
 **********************



 TOTAL JOB TIME:             0.11 SECONDS

 == MOPAC DONE ==


          MOPAC Job: "./h2oTraj/h2o_90.mop" ended normally on Jun  1, 2023, at 14:01.

rm: cannot remove ‘./h2oTraj/h2o_90.cim’: No such file or directory
rm: cannot remove ‘./h2oTraj/h2o_90.end’: No such file or directory
rm: cannot remove ‘./h2oTraj/h2o_90.log’: No such file or directory
rm: cannot remove ‘./h2oTraj/h2o_90.temp’: No such file or directory
rm: cannot remove ‘./h2oTraj/h2o_90.ple’: No such file or directory
rm: cannot remove ‘./h2oTraj/h2o_90.sts’: No such file or directory
