 *******************************************************************************
 ** Site#:    0         For non-commercial use only    Version 20.173L 64BITS **
 *******************************************************************************
 ** Cite this program as: MOPAC2016, Version: 20.173L, James J. P. Stewart,   **
 ** Stewart Computational Chemistry, web-site: HTTP://OpenMOPAC.net.          **
 *******************************************************************************
 **                                                                           **
 **                                MOPAC2016                                  **
 **                                                                           **
 *******************************************************************************

                              INDO CALCULATION RESULTS

 *******************************************************************************
 *  CALCULATION DONE:                                Thu Jun  1 14:01:01 2023  *
 *  INDO       - The INDO Hamiltonian to be used
 *
 *
 *
 *                 CHARGE ON SYSTEM = 0
 *
 *
 *
 *  C.I.=(N,M) - 2 DOUBLY FILLED LEVELS USED IN A C.I. INVOLVING 4 M.O.'S
 *  T=         - A TIME OF 172800.0 SECONDS REQUESTED
 *  DUMP=N     - RESTART FILE WRITTEN EVERY 7200.0 SECONDS REQUESTED
 *  RELSCF     - DEFAULT SCF CRITERION MULTIPLIED BY 0.0000
 *              (DEFAULT SCF CRITERION = 0.00010)
 *  ALLVEC     - PRINT ALL EIGENVECTORS
 **********
 *  WARNING: Specified print options may not behave as expected with INDO
 **********
 *******************************************************************************
INDO C.I.=(4,2) AllVEC CHARGE=0 RELSCF=0.000001


   ATOM   CHEMICAL          X               Y               Z
  NUMBER   SYMBOL      (ANGSTROMS)     (ANGSTROMS)     (ANGSTROMS)
 
     1       O         -1.05057351  *   0.46926087  *   0.02717411  *
     2       H         -0.10305528  *   0.39361585  *  -0.17926867  *
     3       H         -1.30381115  *   1.37374715  *  -0.25206639  *
 


          CARTESIAN COORDINATES 

    NO.       ATOM           X           Y           Z

     1         O         -1.0506      0.4693      0.0272
     2         H         -0.1031      0.3936     -0.1793
     3         H         -1.3038      1.3737     -0.2521

           Empirical Formula: H2 O  =     3 atoms



      MOLECULAR POINT GROUP   :   C2v 


      RHF CALCULATION, NO. OF DOUBLY OCCUPIED LEVELS = 4

 WARNING: INDO only performs single-point calculations
  SCF CRITERION =    0.1000E-09

 Summary of symmetry occupancy in each shell:

 SHELL     
    1    4
    v    2
 TOTAL   6




    ROOT NO.    1           2           3           4           5           6

           -40.47826   -19.65400   -14.68479   -12.80766     6.00583     7.74768
  
  
  S  O   1   0.83535    -0.00263    -0.39350    -0.00000    -0.38364    -0.01301
 PX  O   1   0.10302     0.60472     0.50135     0.22603    -0.27730    -0.49433
 PY  O   1   0.11910    -0.49034     0.59240     0.34458    -0.35796     0.38416
 PZ  O   1  -0.07060     0.03542    -0.34841     0.91114     0.20416    -0.02265
  
  S  H   2   0.37087     0.44198     0.24549    -0.00000     0.53347     0.56767
  
  S  H   3   0.36725    -0.44417     0.24741     0.00000     0.56702    -0.53397


 Reference determinate nber   1 is ALPHA 1 -   4
 SINGLE excitations FROM orbs   3 to   4 INTO orbs   5 to   6
 

 CI excitations=    5:        =  5
 The lowest    5 spin-adapted configurations of multiplicity=  1
     sym   eV   cm**-1 -dets- dipole oscilator X FRAG ....Excitations named from first reference determinate
                       tot  #  Debye  strength
 
   1      0.000      0.  1  1  2.4446 0.000000 0  0 (     )->       )
   2     10.870  87673.  1  1  0.1996 0.031555 1  1 (   4 )->   5   )
   3     11.782  95028.  1  1  0.7326 0.000039 1  1 (   4 )->   6   )
   4     13.602 109705.  1  1  0.6500 0.032718 1  1 (   3 )->   5   )
   5     14.527 117165.  1  1  0.1628 0.218728 1  1 (   3 )->   6   )

 Depression of ground-state after CI=          0. cm**-1 Energy=  -464.3337137 eV
 Dipole moment=  1.440756  1.702373 -1.001215 tot=  2.444644 Debyes


  CI trans.  energy frequency wavelength oscillator ---------polarization---------    dipole   ------components----- 
 st.  symm.    eV      cm-1       nm      strength       x          y         z       moment     x       y       z 

   2     10.8694964    87669.    114.07  0.031486   0.226027   0.344577   0.911141  0.312423   0.290  -0.111  -0.030
   3     11.7824204    95032.    105.23  0.000113   0.226026   0.344582   0.911140  0.767860   0.203   0.674  -0.306
   4     13.6013855   109703.     91.16  0.032980  -0.483961  -0.772023   0.412022  0.675776  -0.177  -0.594   0.269
   5     14.5268328   117167.     85.35  0.218451   0.783046  -0.620646   0.040468  0.246644  -0.202   0.142  -0.004
 
 Polarizability (au  ) xx=    1.53 xy=   -0.92 yy=    1.19 xz=    0.12 yz=    0.00 zz=    0.56
 Polarizability (A**3) xx=    0.23 xy=   -0.14 yy=    0.18 xz=    0.02 yz=    0.00 zz=    0.08
 ***********************************
 ***********************************
 CI Matrix
  1.0000000000  0.0000000000  0.0000000000  0.0000000000  0.0000000000 
  0.0000000000 -0.9997234783  0.0235152482  0.0000000491 -0.0000000121 
  0.0000000000 -0.0235152482 -0.9997234783 -0.0000000922  0.0000000409 
  0.0000000000 -0.0000000470  0.0000000940 -0.9998729583  0.0159394852 
  0.0000000000 -0.0000000104  0.0000000397  0.0159394852  0.9998729583 
 ***********************************
 ***********************************
 
 
 Major CI contributions to CI states
 
State    1  0.0000     CI coeff  CI percent
    Config       1   1.00000000  1.00000000
 Total coeff printed             1.00000000
  
State    2 10.8695     CI coeff  CI percent
    Config       2  -0.99972348  0.99944703
 Total coeff printed             0.99944703
  
State    3 11.7824     CI coeff  CI percent
    Config       3  -0.99972348  0.99944703
 Total coeff printed             0.99944703
  
State    4 13.6014     CI coeff  CI percent
    Config       4  -0.99987296  0.99974593
 Total coeff printed             0.99974593
  
State    5 14.5268     CI coeff  CI percent
    Config       5   0.99987296  0.99974593
 Total coeff printed             0.99974593
  

 -------------------------------------------------------------------------------
 INDO C.I.=(4,2) AllVEC CHARGE=0 RELSCF=0.000001




     1SCF WAS SPECIFIED, SO BFGS WAS NOT USED                 
     SCF FIELD WAS ACHIEVED                                   


                              INDO CALCULATION
                                                       MOPAC2016 (Version: 20.173L)
                                                       Thu Jun  1 14:01:01 2023




          FINAL HEAT OF FORMATION =      -8339.30069 KCAL/MOL =  -34891.63407 KJ/MOL


          TOTAL ENERGY            =       -368.72804 EV
          ELECTRONIC ENERGY       =       -464.33371 EV  POINT GROUP:     C2v 
          CORE-CORE REPULSION     =         95.60567 EV
          COSMO AREA              =         42.54 SQUARE ANGSTROMS
          COSMO VOLUME            =         25.29 CUBIC ANGSTROMS

          IONIZATION POTENTIAL    =         12.807662 EV
          HOMO LUMO ENERGIES (EV) =        -12.808  6.006
          NO. OF FILLED LEVELS    =          4
          MOLECULAR WEIGHT        =         18.0152

          MOLECULAR DIMENSIONS (Angstroms)

            Atom       Atom       Distance
            H     3    H     2     1.55170
            O     1    H     3     0.59262
            H     2    O     1     0.00000


          SCF CALCULATIONS        =          1
 
          WALL-CLOCK TIME         =          0.043 SECONDS
          COMPUTATION TIME        =          0.010 SECONDS




   ATOM   CHEMICAL          X               Y               Z
  NUMBER   SYMBOL      (ANGSTROMS)     (ANGSTROMS)     (ANGSTROMS)
 
     1       O         -1.05057351  *   0.46926087  *   0.02717411  *
     2       H         -0.10305528  *   0.39361585  *  -0.17926867  *
     3       H         -1.30381115  *   1.37374715  *  -0.25206639  *

                             CARTESIAN COORDINATES

   1    O       -1.050573509     0.469260866     0.027174109
   2    H       -0.103055278     0.393615850    -0.179268672
   3    H       -1.303811149     1.373747153    -0.252066385


           Empirical Formula: H2 O  =     3 atoms



      MOLECULAR POINT GROUP   :   C2v 


                EIGENVECTORS  


   Root No.       1         2         3         4         5         6

                 1 a1      1 b2      2 a1      1 b1      3 a1      2 b2  

               -40.478   -19.654   -14.685   -12.808     6.006     7.748
  
  S   O    1    0.8353   -0.0026   -0.3935   -0.0000   -0.3836   -0.0130
  Px  O    1    0.1030    0.6047    0.5014    0.2260   -0.2773   -0.4943
  Py  O    1    0.1191   -0.4903    0.5924    0.3446   -0.3580    0.3842
  Pz  O    1   -0.0706    0.0354   -0.3484    0.9111    0.2042   -0.0227
  S   H    2    0.3709    0.4420    0.2455   -0.0000    0.5335    0.5677
  S   H    3    0.3672   -0.4442    0.2474    0.0000    0.5670   -0.5340


              NET ATOMIC CHARGES AND DIPOLE CONTRIBUTIONS

  ATOM NO.   TYPE          CHARGE      No. of ELECS.   s-Pop       p-Pop       
    1          O          -0.426956        6.4270     1.70530     4.72166
    2          H           0.213692        0.7863     0.78631
    3          H           0.213264        0.7867     0.78674
 DIPOLE           X         Y         Z       TOTAL
 POINT-CHG.     0.713     0.849    -0.498     1.215
 HYBRID         0.728     0.854    -0.503     1.229
 SUM            1.441     1.702    -1.001     2.445


          ATOMIC ORBITAL ELECTRON POPULATIONS

     Atom    s        px        py        pz   
    1  O   1.70530   1.35747   1.44858   1.91561
    2  H   0.78631
    3  H   0.78674

 **********************
 *                    *
 * JOB ENDED NORMALLY *
 *                    *
 **********************



 TOTAL JOB TIME:             0.09 SECONDS

 == MOPAC DONE ==


          MOPAC Job: "./h2oTraj/h2o_57.mop" ended normally on Jun  1, 2023, at 14:01.

rm: cannot remove ‘./h2oTraj/h2o_57.cim’: No such file or directory
rm: cannot remove ‘./h2oTraj/h2o_57.end’: No such file or directory
rm: cannot remove ‘./h2oTraj/h2o_57.log’: No such file or directory
rm: cannot remove ‘./h2oTraj/h2o_57.temp’: No such file or directory
rm: cannot remove ‘./h2oTraj/h2o_57.ple’: No such file or directory
rm: cannot remove ‘./h2oTraj/h2o_57.sts’: No such file or directory
