 *******************************************************************************
 ** Site#:    0         For non-commercial use only    Version 20.173L 64BITS **
 *******************************************************************************
 ** Cite this program as: MOPAC2016, Version: 20.173L, James J. P. Stewart,   **
 ** Stewart Computational Chemistry, web-site: HTTP://OpenMOPAC.net.          **
 *******************************************************************************
 **                                                                           **
 **                                MOPAC2016                                  **
 **                                                                           **
 *******************************************************************************

                              INDO CALCULATION RESULTS

 *******************************************************************************
 *  CALCULATION DONE:                                Thu Jun  1 14:01:04 2023  *
 *  INDO       - The INDO Hamiltonian to be used
 *
 *
 *
 *                 CHARGE ON SYSTEM = 0
 *
 *
 *
 *  C.I.=(N,M) - 2 DOUBLY FILLED LEVELS USED IN A C.I. INVOLVING 4 M.O.'S
 *  T=         - A TIME OF 172800.0 SECONDS REQUESTED
 *  DUMP=N     - RESTART FILE WRITTEN EVERY 7200.0 SECONDS REQUESTED
 *  RELSCF     - DEFAULT SCF CRITERION MULTIPLIED BY 0.0000
 *              (DEFAULT SCF CRITERION = 0.00010)
 *  ALLVEC     - PRINT ALL EIGENVECTORS
 **********
 *  WARNING: Specified print options may not behave as expected with INDO
 **********
 *******************************************************************************
INDO C.I.=(4,2) AllVEC CHARGE=0 RELSCF=0.000001


   ATOM   CHEMICAL          X               Y               Z
  NUMBER   SYMBOL      (ANGSTROMS)     (ANGSTROMS)     (ANGSTROMS)
 
     1       O         -1.05402257  *   0.47341950  *   0.02907909  *
     2       H         -0.11203432  *   0.35912116  *  -0.17553250  *
     3       H         -1.24008512  *   1.34223172  *  -0.28604036  *
 


          CARTESIAN COORDINATES 

    NO.       ATOM           X           Y           Z

     1         O         -1.0540      0.4734      0.0291
     2         H         -0.1120      0.3591     -0.1755
     3         H         -1.2401      1.3422     -0.2860

           Empirical Formula: H2 O  =     3 atoms



      MOLECULAR POINT GROUP   :   C2v 


      RHF CALCULATION, NO. OF DOUBLY OCCUPIED LEVELS = 4

 WARNING: INDO only performs single-point calculations
  SCF CRITERION =    0.1000E-09

 Summary of symmetry occupancy in each shell:

 SHELL     
    1    4
    v    2
 TOTAL   6




    ROOT NO.    1           2           3           4           5           6

           -40.99732   -19.65105   -14.78434   -12.82845     6.34446     7.96169
  
  
  S  O   1   0.82943     0.00955    -0.40181     0.00000    -0.38402    -0.05506
 PX  O   1   0.10602     0.58185     0.52837     0.24003    -0.36967     0.42043
 PY  O   1   0.11924    -0.51991     0.54929     0.37602    -0.26572    -0.44918
 PZ  O   1  -0.07853     0.06239    -0.37248     0.89499     0.21078     0.07596
  
  S  H   2   0.36748     0.44444     0.24725    -0.00000     0.61460    -0.47808
  
  S  H   3   0.38128    -0.43547     0.24035    -0.00000     0.47234     0.61977


 Reference determinate nber   1 is ALPHA 1 -   4
 SINGLE excitations FROM orbs   3 to   4 INTO orbs   5 to   6
 

 CI excitations=    5:        =  5
 The lowest    5 spin-adapted configurations of multiplicity=  1
     sym   eV   cm**-1 -dets- dipole oscilator X FRAG ....Excitations named from first reference determinate
                       tot  #  Debye  strength
 
   1      0.000      0.  1  1  2.4656 0.000000 0  0 (     )->       )
   2     11.182  90187.  1  1  0.7024 0.032524 1  1 (   4 )->   5   )
   3     12.005  96824.  1  1  0.9580 0.000718 1  1 (   4 )->   6   )
   4     13.955 112554.  1  1  0.9189 0.036984 1  1 (   3 )->   5   )
   5     14.812 119464.  1  1  0.6590 0.208183 1  1 (   3 )->   6   )

 Depression of ground-state after CI=          0. cm**-1 Energy=  -466.3047322 eV
 Dipole moment=  1.536539  1.595798 -1.082539 tot=  2.465647 Debyes


  CI trans.  energy frequency wavelength oscillator ---------polarization---------    dipole   ------components----- 
 st.  symm.    eV      cm-1       nm      strength       x          y         z       moment     x       y       z 

   2     11.1721876    90110.    110.98  0.031145   0.240027   0.376016   0.894986  1.212142  -0.802   0.895  -0.161
   3     12.0142199    96901.    103.20  0.002172   0.240027   0.376016   0.894986  1.345671   1.291  -0.313  -0.215
   4     13.9506370   112520.     88.87  0.041574  -0.903896  -0.249684   0.347318  1.186578  -1.139   0.273   0.191
   5     14.8159131   119499.     83.68  0.203357  -0.706061   0.700342  -0.104880  1.001265   0.709  -0.699   0.104
 
 Polarizability (au  ) xx=    1.45 xy=   -0.86 yy=    1.12 xz=    0.13 yz=    0.01 zz=    0.55
 Polarizability (A**3) xx=    0.21 xy=   -0.13 yy=    0.17 xz=    0.02 yz=    0.00 zz=    0.08
 ***********************************
 ***********************************
 CI Matrix
  1.0000000000  0.0000000000  0.0000000000  0.0000000000  0.0000000000 
  0.0000000000 -0.9942868117  0.1067414450 -0.0000000000  0.0000000000 
  0.0000000000 -0.1067414450 -0.9942868117  0.0000000000 -0.0000000000 
  0.0000000000  0.0000000000 -0.0000000000 -0.9975270977  0.0702829233 
  0.0000000000 -0.0000000000 -0.0000000000  0.0702829233  0.9975270977 
 ***********************************
 ***********************************
 
 
 Major CI contributions to CI states
 
State    1  0.0000     CI coeff  CI percent
    Config       1   1.00000000  1.00000000
 Total coeff printed             1.00000000
  
State    2 11.1722     CI coeff  CI percent
    Config       2  -0.99428681  0.98860626
    Config       3   0.10674145  0.01139374
 Total coeff printed             1.00000000
  
State    3 12.0142     CI coeff  CI percent
    Config       2  -0.10674145  0.01139374
    Config       3  -0.99428681  0.98860626
 Total coeff printed             1.00000000
  
State    4 13.9506     CI coeff  CI percent
    Config       4  -0.99752710  0.99506031
    Config       5   0.07028292  0.00493969
 Total coeff printed             1.00000000
  
State    5 14.8159     CI coeff  CI percent
    Config       4   0.07028292  0.00493969
    Config       5   0.99752710  0.99506031
 Total coeff printed             1.00000000
  

 -------------------------------------------------------------------------------
 INDO C.I.=(4,2) AllVEC CHARGE=0 RELSCF=0.000001




     1SCF WAS SPECIFIED, SO BFGS WAS NOT USED                 
     SCF FIELD WAS ACHIEVED                                   


                              INDO CALCULATION
                                                       MOPAC2016 (Version: 20.173L)
                                                       Thu Jun  1 14:01:04 2023




          FINAL HEAT OF FORMATION =      -8364.56027 KCAL/MOL =  -34997.32015 KJ/MOL


          TOTAL ENERGY            =       -369.82340 EV
          ELECTRONIC ENERGY       =       -466.30473 EV  POINT GROUP:     C2v 
          CORE-CORE REPULSION     =         96.48133 EV
          COSMO AREA              =         42.52 SQUARE ANGSTROMS
          COSMO VOLUME            =         25.22 CUBIC ANGSTROMS

          IONIZATION POTENTIAL    =         12.828453 EV
          HOMO LUMO ENERGIES (EV) =        -12.828  6.344
          NO. OF FILLED LEVELS    =          4
          MOLECULAR WEIGHT        =         18.0152

          MOLECULAR DIMENSIONS (Angstroms)

            Atom       Atom       Distance
            H     3    H     2     1.50041
            H     2    O     1     0.59363
            O     1    H     3     0.00000


          SCF CALCULATIONS        =          1
 
          WALL-CLOCK TIME         =          0.273 SECONDS
          COMPUTATION TIME        =          0.011 SECONDS




   ATOM   CHEMICAL          X               Y               Z
  NUMBER   SYMBOL      (ANGSTROMS)     (ANGSTROMS)     (ANGSTROMS)
 
     1       O         -1.05402257  *   0.47341950  *   0.02907909  *
     2       H         -0.11203432  *   0.35912116  *  -0.17553250  *
     3       H         -1.24008512  *   1.34223172  *  -0.28604036  *

                             CARTESIAN COORDINATES

   1    O       -1.054022569     0.473419504     0.029079090
   2    H       -0.112034317     0.359121155    -0.175532504
   3    H       -1.240085120     1.342231725    -0.286040357


           Empirical Formula: H2 O  =     3 atoms



      MOLECULAR POINT GROUP   :   C2v 


                EIGENVECTORS  


   Root No.       1         2         3         4         5         6

                 1 a1      1 b2      2 a1      1 b1      3 a1      2 b2  

               -40.997   -19.651   -14.784   -12.828     6.344     7.962
  
  S   O    1    0.8294    0.0095   -0.4018    0.0000   -0.3840   -0.0551
  Px  O    1    0.1060    0.5818    0.5284    0.2400   -0.3697    0.4204
  Py  O    1    0.1192   -0.5199    0.5493    0.3760   -0.2657   -0.4492
  Pz  O    1   -0.0785    0.0624   -0.3725    0.8950    0.2108    0.0760
  S   H    2    0.3675    0.4444    0.2473   -0.0000    0.6146   -0.4781
  S   H    3    0.3813   -0.4355    0.2404   -0.0000    0.4723    0.6198


              NET ATOMIC CHARGES AND DIPOLE CONTRIBUTIONS

  ATOM NO.   TYPE          CHARGE      No. of ELECS.   s-Pop       p-Pop       
    1          O          -0.427024        6.4270     1.69900     4.72802
    2          H           0.212584        0.7874     0.78742
    3          H           0.214440        0.7856     0.78556
 DIPOLE           X         Y         Z       TOTAL
 POINT-CHG.     0.770     0.778    -0.533     1.218
 HYBRID         0.766     0.818    -0.549     1.248
 SUM            1.537     1.596    -1.083     2.466


          ATOMIC ORBITAL ELECTRON POPULATIONS

     Atom    s        px        py        pz   
    1  O   1.69900   1.37315   1.45527   1.89960
    2  H   0.78742
    3  H   0.78556

 **********************
 *                    *
 * JOB ENDED NORMALLY *
 *                    *
 **********************



 TOTAL JOB TIME:             0.55 SECONDS

 == MOPAC DONE ==


          MOPAC Job: "./h2oTraj/h2o_73.mop" ended normally on Jun  1, 2023, at 14:01.

rm: cannot remove ‘./h2oTraj/h2o_73.cim’: No such file or directory
rm: cannot remove ‘./h2oTraj/h2o_73.end’: No such file or directory
rm: cannot remove ‘./h2oTraj/h2o_73.log’: No such file or directory
rm: cannot remove ‘./h2oTraj/h2o_73.temp’: No such file or directory
rm: cannot remove ‘./h2oTraj/h2o_73.ple’: No such file or directory
rm: cannot remove ‘./h2oTraj/h2o_73.sts’: No such file or directory
