 *******************************************************************************
 ** Site#:    0         For non-commercial use only    Version 20.173L 64BITS **
 *******************************************************************************
 ** Cite this program as: MOPAC2016, Version: 20.173L, James J. P. Stewart,   **
 ** Stewart Computational Chemistry, web-site: HTTP://OpenMOPAC.net.          **
 *******************************************************************************
 **                                                                           **
 **                                MOPAC2016                                  **
 **                                                                           **
 *******************************************************************************

                              INDO CALCULATION RESULTS

 *******************************************************************************
 *  CALCULATION DONE:                                Thu Jun  1 14:01:04 2023  *
 *  INDO       - The INDO Hamiltonian to be used
 *
 *
 *
 *                 CHARGE ON SYSTEM = 0
 *
 *
 *
 *  C.I.=(N,M) - 2 DOUBLY FILLED LEVELS USED IN A C.I. INVOLVING 4 M.O.'S
 *  T=         - A TIME OF 172800.0 SECONDS REQUESTED
 *  DUMP=N     - RESTART FILE WRITTEN EVERY 7200.0 SECONDS REQUESTED
 *  RELSCF     - DEFAULT SCF CRITERION MULTIPLIED BY 0.0000
 *              (DEFAULT SCF CRITERION = 0.00010)
 *  ALLVEC     - PRINT ALL EIGENVECTORS
 **********
 *  WARNING: Specified print options may not behave as expected with INDO
 **********
 *******************************************************************************
INDO C.I.=(4,2) AllVEC CHARGE=0 RELSCF=0.000001


   ATOM   CHEMICAL          X               Y               Z
  NUMBER   SYMBOL      (ANGSTROMS)     (ANGSTROMS)     (ANGSTROMS)
 
     1       O         -1.05598876  *   0.47140991  *   0.02754725  *
     2       H         -0.09782621  *   0.37823065  *  -0.16937756  *
     3       H         -1.22308390  *   1.35502061  *  -0.26788032  *
 


          CARTESIAN COORDINATES 

    NO.       ATOM           X           Y           Z

     1         O         -1.0560      0.4714      0.0275
     2         H         -0.0978      0.3782     -0.1694
     3         H         -1.2231      1.3550     -0.2679

           Empirical Formula: H2 O  =     3 atoms



      MOLECULAR POINT GROUP   :   C2v 


      RHF CALCULATION, NO. OF DOUBLY OCCUPIED LEVELS = 4

 WARNING: INDO only performs single-point calculations
  SCF CRITERION =    0.1000E-09

 Summary of symmetry occupancy in each shell:

 SHELL     
    1    4
    v    2
 TOTAL   6




    ROOT NO.    1           2           3           4           5           6

           -40.87953   -19.45358   -14.88134   -12.83531     6.27037     7.78812
  
  
  S  O   1   0.82947     0.01250    -0.40694     0.00000    -0.37503    -0.07462
 PX  O   1   0.10752     0.58204     0.53203     0.22106    -0.39927     0.39791
 PY  O   1   0.12446    -0.52308     0.55782     0.34659    -0.25530    -0.46307
 PZ  O   1  -0.07339     0.05773    -0.34110     0.91160     0.19389     0.07957
  
  S  H   2   0.36490     0.44377     0.25350    -0.00000     0.63602    -0.44848
  
  S  H   3   0.38260    -0.43266     0.24406    -0.00000     0.43892     0.64359


 Reference determinate nber   1 is ALPHA 1 -   4
 SINGLE excitations FROM orbs   3 to   4 INTO orbs   5 to   6
 

 CI excitations=    5:        =  5
 The lowest    5 spin-adapted configurations of multiplicity=  1
     sym   eV   cm**-1 -dets- dipole oscilator X FRAG ....Excitations named from first reference determinate
                       tot  #  Debye  strength
 
   1      0.000      0.  1  1  2.4968 0.000000 0  0 (     )->       )
   2     11.085  89403.  1  1  0.9448 0.030749 1  1 (   4 )->   5   )
   3     11.871  95749.  1  1  1.1059 0.001304 1  1 (   4 )->   6   )
   4     14.009 112993.  1  1  1.0987 0.047987 1  1 (   3 )->   5   )
   5     14.789 119281.  1  1  0.8968 0.210448 1  1 (   3 )->   6   )

 Depression of ground-state after CI=          0. cm**-1 Energy=  -465.5750920 eV
 Dipole moment=  1.575228  1.652812 -1.010385 tot=  2.496799 Debyes


  CI trans.  energy frequency wavelength oscillator ---------polarization---------    dipole   ------components----- 
 st.  symm.    eV      cm-1       nm      strength       x          y         z       moment     x       y       z 

   2     11.0677475    89268.    112.02  0.028369   0.221059   0.346588   0.911597  1.584303  -1.071   1.154  -0.179
   3     11.8880970    95884.    104.29  0.003812   0.221059   0.346588   0.911597  1.644433   1.534  -0.573  -0.154
   4     14.0004893   112922.     88.56  0.057370  -0.945881  -0.151506   0.286976  1.511357  -1.408   0.532   0.139
   5     14.7977544   119352.     83.79  0.200625  -0.678003   0.726506  -0.111803  1.376265   0.970  -0.967   0.132
 
 Polarizability (au  ) xx=    1.55 xy=   -0.87 yy=    1.16 xz=    0.09 yz=   -0.01 zz=    0.56
 Polarizability (A**3) xx=    0.23 xy=   -0.13 yy=    0.17 xz=    0.01 yz=   -0.00 zz=    0.08
 ***********************************
 ***********************************
 CI Matrix
  1.0000000000  0.0000000000  0.0000000000  0.0000000000  0.0000000000 
  0.0000000000 -0.9897122676  0.1430721053 -0.0000000000  0.0000000000 
  0.0000000000 -0.1430721053 -0.9897122676  0.0000000000 -0.0000000000 
  0.0000000000  0.0000000000 -0.0000000000 -0.9944801084  0.1049252779 
  0.0000000000 -0.0000000000 -0.0000000000  0.1049252779  0.9944801084 
 ***********************************
 ***********************************
 
 
 Major CI contributions to CI states
 
State    1  0.0000     CI coeff  CI percent
    Config       1   1.00000000  1.00000000
 Total coeff printed             1.00000000
  
State    2 11.0677     CI coeff  CI percent
    Config       2  -0.98971227  0.97953037
    Config       3   0.14307211  0.02046963
 Total coeff printed             1.00000000
  
State    3 11.8881     CI coeff  CI percent
    Config       2  -0.14307211  0.02046963
    Config       3  -0.98971227  0.97953037
 Total coeff printed             1.00000000
  
State    4 14.0005     CI coeff  CI percent
    Config       4  -0.99448011  0.98899069
    Config       5   0.10492528  0.01100931
 Total coeff printed             1.00000000
  
State    5 14.7978     CI coeff  CI percent
    Config       4   0.10492528  0.01100931
    Config       5   0.99448011  0.98899069
 Total coeff printed             1.00000000
  

 -------------------------------------------------------------------------------
 INDO C.I.=(4,2) AllVEC CHARGE=0 RELSCF=0.000001




     1SCF WAS SPECIFIED, SO BFGS WAS NOT USED                 
     SCF FIELD WAS ACHIEVED                                   


                              INDO CALCULATION
                                                       MOPAC2016 (Version: 20.173L)
                                                       Thu Jun  1 14:01:04 2023




          FINAL HEAT OF FORMATION =      -8354.45847 KCAL/MOL =  -34955.05422 KJ/MOL


          TOTAL ENERGY            =       -369.38535 EV
          ELECTRONIC ENERGY       =       -465.57509 EV  POINT GROUP:     C2v 
          CORE-CORE REPULSION     =         96.18975 EV
          COSMO AREA              =         42.64 SQUARE ANGSTROMS
          COSMO VOLUME            =         25.35 CUBIC ANGSTROMS

          IONIZATION POTENTIAL    =         12.835311 EV
          HOMO LUMO ENERGIES (EV) =        -12.835  6.270
          NO. OF FILLED LEVELS    =          4
          MOLECULAR WEIGHT        =         18.0152

          MOLECULAR DIMENSIONS (Angstroms)

            Atom       Atom       Distance
            H     3    H     2     1.49333
            H     2    O     1     0.61049
            H     2    H     3     0.00000


          SCF CALCULATIONS        =          1
 
          WALL-CLOCK TIME         =          0.270 SECONDS
          COMPUTATION TIME        =          0.011 SECONDS




   ATOM   CHEMICAL          X               Y               Z
  NUMBER   SYMBOL      (ANGSTROMS)     (ANGSTROMS)     (ANGSTROMS)
 
     1       O         -1.05598876  *   0.47140991  *   0.02754725  *
     2       H         -0.09782621  *   0.37823065  *  -0.16937756  *
     3       H         -1.22308390  *   1.35502061  *  -0.26788032  *

                             CARTESIAN COORDINATES

   1    O       -1.055988757     0.471409906     0.027547247
   2    H       -0.097826207     0.378230649    -0.169377561
   3    H       -1.223083903     1.355020610    -0.267880322


           Empirical Formula: H2 O  =     3 atoms



      MOLECULAR POINT GROUP   :   C2v 


                EIGENVECTORS  


   Root No.       1         2         3         4         5         6

                 1 a1      1 b2      2 a1      1 b1      3 a1      2 b2  

               -40.880   -19.454   -14.881   -12.835     6.270     7.788
  
  S   O    1    0.8295    0.0125   -0.4069    0.0000   -0.3750   -0.0746
  Px  O    1    0.1075    0.5820    0.5320    0.2211   -0.3993    0.3979
  Py  O    1    0.1245   -0.5231    0.5578    0.3466   -0.2553   -0.4631
  Pz  O    1   -0.0734    0.0577   -0.3411    0.9116    0.1939    0.0796
  S   H    2    0.3649    0.4438    0.2535   -0.0000    0.6360   -0.4485
  S   H    3    0.3826   -0.4327    0.2441   -0.0000    0.4389    0.6436


              NET ATOMIC CHARGES AND DIPOLE CONTRIBUTIONS

  ATOM NO.   TYPE          CHARGE      No. of ELECS.   s-Pop       p-Pop       
    1          O          -0.425009        6.4250     1.70758     4.71743
    2          H           0.211305        0.7887     0.78869
    3          H           0.213704        0.7863     0.78630
 DIPOLE           X         Y         Z       TOTAL
 POINT-CHG.     0.801     0.812    -0.503     1.247
 HYBRID         0.774     0.841    -0.507     1.250
 SUM            1.575     1.653    -1.010     2.497


          ATOMIC ORBITAL ELECTRON POPULATIONS

     Atom    s        px        py        pz   
    1  O   1.70758   1.36450   1.44078   1.91215
    2  H   0.78869
    3  H   0.78630

 **********************
 *                    *
 * JOB ENDED NORMALLY *
 *                    *
 **********************



 TOTAL JOB TIME:             0.54 SECONDS

 == MOPAC DONE ==


          MOPAC Job: "./h2oTraj/h2o_72.mop" ended normally on Jun  1, 2023, at 14:01.

rm: cannot remove ‘./h2oTraj/h2o_72.cim’: No such file or directory
rm: cannot remove ‘./h2oTraj/h2o_72.end’: No such file or directory
rm: cannot remove ‘./h2oTraj/h2o_72.log’: No such file or directory
rm: cannot remove ‘./h2oTraj/h2o_72.temp’: No such file or directory
rm: cannot remove ‘./h2oTraj/h2o_72.ple’: No such file or directory
rm: cannot remove ‘./h2oTraj/h2o_72.sts’: No such file or directory
