 *******************************************************************************
 ** Site#:    0         For non-commercial use only    Version 20.173L 64BITS **
 *******************************************************************************
 ** Cite this program as: MOPAC2016, Version: 20.173L, James J. P. Stewart,   **
 ** Stewart Computational Chemistry, web-site: HTTP://OpenMOPAC.net.          **
 *******************************************************************************
 **                                                                           **
 **                                MOPAC2016                                  **
 **                                                                           **
 *******************************************************************************

                              INDO CALCULATION RESULTS

 *******************************************************************************
 *  CALCULATION DONE:                                Thu Jun  1 14:00:56 2023  *
 *  INDO       - The INDO Hamiltonian to be used
 *
 *
 *
 *                 CHARGE ON SYSTEM = 0
 *
 *
 *
 *  C.I.=(N,M) - 2 DOUBLY FILLED LEVELS USED IN A C.I. INVOLVING 4 M.O.'S
 *  T=         - A TIME OF 172800.0 SECONDS REQUESTED
 *  DUMP=N     - RESTART FILE WRITTEN EVERY 7200.0 SECONDS REQUESTED
 *  RELSCF     - DEFAULT SCF CRITERION MULTIPLIED BY 0.0000
 *              (DEFAULT SCF CRITERION = 0.00010)
 *  ALLVEC     - PRINT ALL EIGENVECTORS
 **********
 *  WARNING: Specified print options may not behave as expected with INDO
 **********
 *******************************************************************************
INDO C.I.=(4,2) AllVEC CHARGE=0 RELSCF=0.000001


   ATOM   CHEMICAL          X               Y               Z
  NUMBER   SYMBOL      (ANGSTROMS)     (ANGSTROMS)     (ANGSTROMS)
 
     1       O         -1.05104956  *   0.46394208  *   0.00794937  *
     2       H         -0.07084680  *   0.44530511  *  -0.07478637  *
     3       H         -1.32846328  *   1.40648312  *  -0.05139411  *
 


          CARTESIAN COORDINATES 

    NO.       ATOM           X           Y           Z

     1         O         -1.0510      0.4639      0.0079
     2         H         -0.0708      0.4453     -0.0748
     3         H         -1.3285      1.4065     -0.0514

           Empirical Formula: H2 O  =     3 atoms



      MOLECULAR POINT GROUP   :   C2v 


      RHF CALCULATION, NO. OF DOUBLY OCCUPIED LEVELS = 4

 WARNING: INDO only performs single-point calculations
  SCF CRITERION =    0.1000E-09

 Summary of symmetry occupancy in each shell:

 SHELL     
    1    4
    v    2
 TOTAL   6




    ROOT NO.    1           2           3           4           5           6

           -40.24359   -19.72224   -14.58735   -12.79067     5.82361     7.71815
  
  
  S  O   1   0.83852    -0.00017    -0.38666     0.00000    -0.38389    -0.00074
 PX  O   1   0.10152     0.61721     0.51352     0.08544    -0.29477    -0.50086
 PY  O   1   0.13320    -0.47151     0.67468     0.08763    -0.38912     0.38164
 PZ  O   1  -0.02050    -0.01150    -0.10378     0.99248     0.05973     0.00942
  
  S  H   2   0.36645     0.44524     0.24574    -0.00000     0.55166     0.55023
  
  S  H   3   0.36623    -0.44537     0.24586    -0.00000     0.55355    -0.54832


 Reference determinate nber   1 is ALPHA 1 -   4
 SINGLE excitations FROM orbs   3 to   4 INTO orbs   5 to   6
 

 CI excitations=    5:        =  5
 The lowest    5 spin-adapted configurations of multiplicity=  1
     sym   eV   cm**-1 -dets- dipole oscilator X FRAG ....Excitations named from first reference determinate
                       tot  #  Debye  strength
 
   1      0.000      0.  1  1  2.4207 0.000000 0  0 (     )->       )
   2     10.702  86319.  1  1  0.0970 0.031109 1  1 (   4 )->   5   )
   3     11.737  94664.  1  1  0.7261 0.000000 1  1 (   4 )->   6   )
   4     13.354 107710.  1  1  0.6294 0.029628 1  1 (   3 )->   5   )
   5     14.396 116110.  1  1  0.0093 0.219927 1  1 (   3 )->   6   )

 Depression of ground-state after CI=          0. cm**-1 Energy=  -463.5253892 eV
 Dipole moment=  1.455245  1.911945 -0.294097 tot=  2.420695 Debyes


  CI trans.  energy frequency wavelength oscillator ---------polarization---------    dipole   ------components----- 
 st.  symm.    eV      cm-1       nm      strength       x          y         z       moment     x       y       z 

   2     10.7022080    86319.    115.85  0.031108   0.085439   0.087635   0.992482  0.097882   0.071   0.066  -0.012
   3     11.7368308    94664.    105.64  0.000000   0.085550   0.087604   0.992475  0.726209   0.424   0.583  -0.088
   4     13.3542938   107710.     92.84  0.029629  -0.595147  -0.794398   0.121378  0.629462  -0.367  -0.505   0.076
   5     14.3957465   116110.     86.13  0.219926   0.794910  -0.606544  -0.014873  0.013712  -0.011   0.008   0.000
 
 Polarizability (au  ) xx=    1.62 xy=   -0.96 yy=    1.10 xz=   -0.00 yz=    0.04 zz=    0.60
 Polarizability (A**3) xx=    0.24 xy=   -0.14 yy=    0.16 xz=   -0.00 yz=    0.01 zz=    0.09
 ***********************************
 ***********************************
 CI Matrix
  1.0000000000  0.0000000000  0.0000000000  0.0000000000  0.0000000000 
  0.0000000000 -0.9999992772  0.0012023493 -0.0000000724 -0.0000000087 
  0.0000000000 -0.0012023493 -0.9999992772 -0.0000000822 -0.0000000690 
  0.0000000000  0.0000000725  0.0000000820 -0.9999996712  0.0008108720 
  0.0000000000 -0.0000000088 -0.0000000691  0.0008108720  0.9999996712 
 ***********************************
 ***********************************
 
 
 Major CI contributions to CI states
 
State    1  0.0000     CI coeff  CI percent
    Config       1   1.00000000  1.00000000
 Total coeff printed             1.00000000
  
State    2 10.7022     CI coeff  CI percent
    Config       2  -0.99999928  0.99999855
 Total coeff printed             0.99999855
  
State    3 11.7368     CI coeff  CI percent
    Config       3  -0.99999928  0.99999855
 Total coeff printed             0.99999855
  
State    4 13.3543     CI coeff  CI percent
    Config       4  -0.99999967  0.99999934
 Total coeff printed             0.99999934
  
State    5 14.3957     CI coeff  CI percent
    Config       5   0.99999967  0.99999934
 Total coeff printed             0.99999934
  

 -------------------------------------------------------------------------------
 INDO C.I.=(4,2) AllVEC CHARGE=0 RELSCF=0.000001




     1SCF WAS SPECIFIED, SO BFGS WAS NOT USED                 
     SCF FIELD WAS ACHIEVED                                   


                              INDO CALCULATION
                                                       MOPAC2016 (Version: 20.173L)
                                                       Thu Jun  1 14:00:56 2023




          FINAL HEAT OF FORMATION =      -8329.07703 KCAL/MOL =  -34848.85828 KJ/MOL


          TOTAL ENERGY            =       -368.28470 EV
          ELECTRONIC ENERGY       =       -463.52539 EV  POINT GROUP:     C2v 
          CORE-CORE REPULSION     =         95.24069 EV
          COSMO AREA              =         42.90 SQUARE ANGSTROMS
          COSMO VOLUME            =         25.52 CUBIC ANGSTROMS

          IONIZATION POTENTIAL    =         12.790667 EV
          HOMO LUMO ENERGIES (EV) =        -12.791  5.824
          NO. OF FILLED LEVELS    =          4
          MOLECULAR WEIGHT        =         18.0152

          MOLECULAR DIMENSIONS (Angstroms)

            Atom       Atom       Distance
            H     3    H     2     1.58304
            H     2    O     1     0.58474
            H     2    H     3     0.00000


          SCF CALCULATIONS        =          1
 
          WALL-CLOCK TIME         =          0.016 SECONDS
          COMPUTATION TIME        =          0.010 SECONDS




   ATOM   CHEMICAL          X               Y               Z
  NUMBER   SYMBOL      (ANGSTROMS)     (ANGSTROMS)     (ANGSTROMS)
 
     1       O         -1.05104956  *   0.46394208  *   0.00794937  *
     2       H         -0.07084680  *   0.44530511  *  -0.07478637  *
     3       H         -1.32846328  *   1.40648312  *  -0.05139411  *

                             CARTESIAN COORDINATES

   1    O       -1.051049559     0.463942076     0.007949371
   2    H       -0.070846798     0.445305114    -0.074786374
   3    H       -1.328463283     1.406483122    -0.051394114


           Empirical Formula: H2 O  =     3 atoms



      MOLECULAR POINT GROUP   :   C2v 


                EIGENVECTORS  


   Root No.       1         2         3         4         5         6

                 1 a1      1 b2      2 a1      1 b1      3 a1      2 b2  

               -40.244   -19.722   -14.587   -12.791     5.824     7.718
  
  S   O    1    0.8385   -0.0002   -0.3867    0.0000   -0.3839   -0.0007
  Px  O    1    0.1015    0.6172    0.5135    0.0854   -0.2948   -0.5009
  Py  O    1    0.1332   -0.4715    0.6747    0.0876   -0.3891    0.3816
  Pz  O    1   -0.0205   -0.0115   -0.1038    0.9925    0.0597    0.0094
  S   H    2    0.3665    0.4452    0.2457   -0.0000    0.5517    0.5502
  S   H    3    0.3662   -0.4454    0.2459   -0.0000    0.5536   -0.5483


              NET ATOMIC CHARGES AND DIPOLE CONTRIBUTIONS

  ATOM NO.   TYPE          CHARGE      No. of ELECS.   s-Pop       p-Pop       
    1          O          -0.428313        6.4283     1.70525     4.72306
    2          H           0.214169        0.7858     0.78583
    3          H           0.214144        0.7859     0.78586
 DIPOLE           X         Y         Z       TOTAL
 POINT-CHG.     0.723     0.950    -0.146     1.203
 HYBRID         0.732     0.962    -0.148     1.218
 SUM            1.455     1.912    -0.294     2.421


          ATOMIC ORBITAL ELECTRON POPULATIONS

     Atom    s        px        py        pz   
    1  O   1.70525   1.32451   1.40587   1.99269
    2  H   0.78583
    3  H   0.78586

 **********************
 *                    *
 * JOB ENDED NORMALLY *
 *                    *
 **********************



 TOTAL JOB TIME:             0.04 SECONDS

 == MOPAC DONE ==


          MOPAC Job: "./h2oTraj/h2o_13.mop" ended normally on Jun  1, 2023, at 14:00.

rm: cannot remove ‘./h2oTraj/h2o_13.cim’: No such file or directory
rm: cannot remove ‘./h2oTraj/h2o_13.end’: No such file or directory
rm: cannot remove ‘./h2oTraj/h2o_13.log’: No such file or directory
rm: cannot remove ‘./h2oTraj/h2o_13.temp’: No such file or directory
rm: cannot remove ‘./h2oTraj/h2o_13.ple’: No such file or directory
rm: cannot remove ‘./h2oTraj/h2o_13.sts’: No such file or directory
