 *******************************************************************************
 ** Site#:    0         For non-commercial use only    Version 20.173L 64BITS **
 *******************************************************************************
 ** Cite this program as: MOPAC2016, Version: 20.173L, James J. P. Stewart,   **
 ** Stewart Computational Chemistry, web-site: HTTP://OpenMOPAC.net.          **
 *******************************************************************************
 **                                                                           **
 **                                MOPAC2016                                  **
 **                                                                           **
 *******************************************************************************

                              INDO CALCULATION RESULTS

 *******************************************************************************
 *  CALCULATION DONE:                                Thu Jun  1 14:01:06 2023  *
 *  INDO       - The INDO Hamiltonian to be used
 *
 *
 *
 *                 CHARGE ON SYSTEM = 0
 *
 *
 *
 *  C.I.=(N,M) - 2 DOUBLY FILLED LEVELS USED IN A C.I. INVOLVING 4 M.O.'S
 *  T=         - A TIME OF 172800.0 SECONDS REQUESTED
 *  DUMP=N     - RESTART FILE WRITTEN EVERY 7200.0 SECONDS REQUESTED
 *  RELSCF     - DEFAULT SCF CRITERION MULTIPLIED BY 0.0000
 *              (DEFAULT SCF CRITERION = 0.00010)
 *  ALLVEC     - PRINT ALL EIGENVECTORS
 **********
 *  WARNING: Specified print options may not behave as expected with INDO
 **********
 *******************************************************************************
INDO C.I.=(4,2) AllVEC CHARGE=0 RELSCF=0.000001


   ATOM   CHEMICAL          X               Y               Z
  NUMBER   SYMBOL      (ANGSTROMS)     (ANGSTROMS)     (ANGSTROMS)
 
     1       O         -1.04973633  *   0.47708729  *   0.03638289  *
     2       H         -0.13889904  *   0.31927490  *  -0.23844425  *
     3       H         -1.28125599  *   1.32385919  *  -0.33906188  *
 


          CARTESIAN COORDINATES 

    NO.       ATOM           X           Y           Z

     1         O         -1.0497      0.4771      0.0364
     2         H         -0.1389      0.3193     -0.2384
     3         H         -1.2813      1.3239     -0.3391

           Empirical Formula: H2 O  =     3 atoms



      MOLECULAR POINT GROUP   :   C2v 


      RHF CALCULATION, NO. OF DOUBLY OCCUPIED LEVELS = 4

 WARNING: INDO only performs single-point calculations
  SCF CRITERION =    0.1000E-09

 Summary of symmetry occupancy in each shell:

 SHELL     
    1    4
    v    2
 TOTAL   6




    ROOT NO.    1           2           3           4           5           6

           -40.86295   -19.77437   -14.68566   -12.81531     6.25606     7.98463
  
  
  S  O   1   0.83172     0.00335    -0.39532    -0.00000    -0.38942    -0.01781
 PX  O   1   0.09908     0.58262     0.49267     0.32857    -0.30433     0.45545
 PY  O   1   0.10523    -0.51630     0.50755     0.45645    -0.27551    -0.42485
 PZ  O   1  -0.09746     0.05349    -0.47596     0.82686     0.27302     0.05355
  
  S  H   2   0.37032     0.44376     0.24290     0.00000     0.57235    -0.52854
  
  S  H   3   0.37513    -0.44066     0.24053     0.00000     0.52698     0.57405


 Reference determinate nber   1 is ALPHA 1 -   4
 SINGLE excitations FROM orbs   3 to   4 INTO orbs   5 to   6
 

 CI excitations=    5:        =  5
 The lowest    5 spin-adapted configurations of multiplicity=  1
     sym   eV   cm**-1 -dets- dipole oscilator X FRAG ....Excitations named from first reference determinate
                       tot  #  Debye  strength
 
   1      0.000      0.  1  1  2.4380 0.000000 0  0 (     )->       )
   2     11.118  89672.  1  1  0.2584 0.033253 1  1 (   4 )->   5   )
   3     11.999  96778.  1  1  0.7622 0.000075 1  1 (   4 )->   6   )
   4     13.782 111159.  1  1  0.6724 0.029023 1  1 (   3 )->   5   )
   5     14.714 118677.  1  1  0.2170 0.210618 1  1 (   3 )->   6   )

 Depression of ground-state after CI=          0. cm**-1 Energy=  -465.9750046 eV
 Dipole moment=  1.409242  1.451000 -1.360996 tot=  2.437965 Debyes


  CI trans.  energy frequency wavelength oscillator ---------polarization---------    dipole   ------components----- 
 st.  symm.    eV      cm-1       nm      strength       x          y         z       moment     x       y       z 

   2     11.1169075    89664.    111.53  0.033110   0.328573   0.456451   0.826857  0.421116  -0.227   0.341  -0.098
   3     11.9999273    96786.    103.32  0.000226   0.328577   0.456446   0.826858  0.825935   0.710   0.181  -0.382
   4     13.7815140   111156.     89.96  0.029476  -0.703101  -0.466333   0.536826  0.715091  -0.613  -0.159   0.332
   5     14.7144883   118681.     84.26  0.210139  -0.737516   0.670893  -0.077284  0.326631   0.227  -0.232   0.038
 
 Polarizability (au  ) xx=    1.41 xy=   -0.86 yy=    1.17 xz=    0.16 yz=    0.03 zz=    0.52
 Polarizability (A**3) xx=    0.21 xy=   -0.13 yy=    0.17 xz=    0.02 yz=    0.00 zz=    0.08
 ***********************************
 ***********************************
 CI Matrix
  1.0000000000  0.0000000000  0.0000000000  0.0000000000  0.0000000000 
  0.0000000000 -0.9994308135  0.0337349810  0.0000001101  0.0000000018 
  0.0000000000 -0.0337349810 -0.9994308135  0.0000000560  0.0000001125 
  0.0000000000 -0.0000001118 -0.0000000499 -0.9997760930  0.0211604320 
  0.0000000000  0.0000000079  0.0000001134  0.0211604320  0.9997760930 
 ***********************************
 ***********************************
 
 
 Major CI contributions to CI states
 
State    1  0.0000     CI coeff  CI percent
    Config       1   1.00000000  1.00000000
 Total coeff printed             1.00000000
  
State    2 11.1169     CI coeff  CI percent
    Config       2  -0.99943081  0.99886195
 Total coeff printed             0.99886195
  
State    3 11.9999     CI coeff  CI percent
    Config       3  -0.99943081  0.99886195
 Total coeff printed             0.99886195
  
State    4 13.7815     CI coeff  CI percent
    Config       4  -0.99977609  0.99955224
 Total coeff printed             0.99955224
  
State    5 14.7145     CI coeff  CI percent
    Config       5   0.99977609  0.99955224
 Total coeff printed             0.99955224
  

 -------------------------------------------------------------------------------
 INDO C.I.=(4,2) AllVEC CHARGE=0 RELSCF=0.000001




     1SCF WAS SPECIFIED, SO BFGS WAS NOT USED                 
     SCF FIELD WAS ACHIEVED                                   


                              INDO CALCULATION
                                                       MOPAC2016 (Version: 20.173L)
                                                       Thu Jun  1 14:01:06 2023




          FINAL HEAT OF FORMATION =      -8360.80032 KCAL/MOL =  -34981.58856 KJ/MOL


          TOTAL ENERGY            =       -369.66035 EV
          ELECTRONIC ENERGY       =       -465.97500 EV  POINT GROUP:     C2v 
          CORE-CORE REPULSION     =         96.31465 EV
          COSMO AREA              =         42.42 SQUARE ANGSTROMS
          COSMO VOLUME            =         25.16 CUBIC ANGSTROMS

          IONIZATION POTENTIAL    =         12.815312 EV
          HOMO LUMO ENERGIES (EV) =        -12.815  6.256
          NO. OF FILLED LEVELS    =          4
          MOLECULAR WEIGHT        =         18.0152

          MOLECULAR DIMENSIONS (Angstroms)

            Atom       Atom       Distance
            H     3    H     2     1.52456
            O     1    H     3     0.58285
            H     2    O     1     0.00000


          SCF CALCULATIONS        =          1
 
          WALL-CLOCK TIME         =          0.016 SECONDS
          COMPUTATION TIME        =          0.010 SECONDS




   ATOM   CHEMICAL          X               Y               Z
  NUMBER   SYMBOL      (ANGSTROMS)     (ANGSTROMS)     (ANGSTROMS)
 
     1       O         -1.04973633  *   0.47708729  *   0.03638289  *
     2       H         -0.13889904  *   0.31927490  *  -0.23844425  *
     3       H         -1.28125599  *   1.32385919  *  -0.33906188  *

                             CARTESIAN COORDINATES

   1    O       -1.049736327     0.477087288     0.036382886
   2    H       -0.138899044     0.319274897    -0.238444251
   3    H       -1.281255987     1.323859189    -0.339061880


           Empirical Formula: H2 O  =     3 atoms



      MOLECULAR POINT GROUP   :   C2v 


                EIGENVECTORS  


   Root No.       1         2         3         4         5         6

                 1 a1      1 b2      2 a1      1 b1      3 a1      2 b2  

               -40.863   -19.774   -14.686   -12.815     6.256     7.985
  
  S   O    1    0.8317    0.0033   -0.3953   -0.0000   -0.3894   -0.0178
  Px  O    1    0.0991    0.5826    0.4927    0.3286   -0.3043    0.4554
  Py  O    1    0.1052   -0.5163    0.5076    0.4565   -0.2755   -0.4248
  Pz  O    1   -0.0975    0.0535   -0.4760    0.8269    0.2730    0.0535
  S   H    2    0.3703    0.4438    0.2429    0.0000    0.5723   -0.5285
  S   H    3    0.3751   -0.4407    0.2405    0.0000    0.5270    0.5740


              NET ATOMIC CHARGES AND DIPOLE CONTRIBUTIONS

  ATOM NO.   TYPE          CHARGE      No. of ELECS.   s-Pop       p-Pop       
    1          O          -0.428359        6.4284     1.69608     4.73228
    2          H           0.213877        0.7861     0.78612
    3          H           0.214482        0.7855     0.78552
 DIPOLE           X         Y         Z       TOTAL
 POINT-CHG.     0.697     0.710    -0.669     1.199
 HYBRID         0.712     0.741    -0.692     1.239
 SUM            1.409     1.451    -1.361     2.438


          ATOMIC ORBITAL ELECTRON POPULATIONS

     Atom    s        px        py        pz   
    1  O   1.69608   1.39990   1.48720   1.84518
    2  H   0.78612
    3  H   0.78552

 **********************
 *                    *
 * JOB ENDED NORMALLY *
 *                    *
 **********************



 TOTAL JOB TIME:             0.03 SECONDS

 == MOPAC DONE ==


          MOPAC Job: "./h2oTraj/h2o_86.mop" ended normally on Jun  1, 2023, at 14:01.

rm: cannot remove ‘./h2oTraj/h2o_86.cim’: No such file or directory
rm: cannot remove ‘./h2oTraj/h2o_86.end’: No such file or directory
rm: cannot remove ‘./h2oTraj/h2o_86.log’: No such file or directory
rm: cannot remove ‘./h2oTraj/h2o_86.temp’: No such file or directory
rm: cannot remove ‘./h2oTraj/h2o_86.ple’: No such file or directory
rm: cannot remove ‘./h2oTraj/h2o_86.sts’: No such file or directory
