 *******************************************************************************
 ** Site#:    0         For non-commercial use only    Version 20.173L 64BITS **
 *******************************************************************************
 ** Cite this program as: MOPAC2016, Version: 20.173L, James J. P. Stewart,   **
 ** Stewart Computational Chemistry, web-site: HTTP://OpenMOPAC.net.          **
 *******************************************************************************
 **                                                                           **
 **                                MOPAC2016                                  **
 **                                                                           **
 *******************************************************************************

                              INDO CALCULATION RESULTS

 *******************************************************************************
 *  CALCULATION DONE:                                Thu Jun  1 14:01:06 2023  *
 *  INDO       - The INDO Hamiltonian to be used
 *
 *
 *
 *                 CHARGE ON SYSTEM = 0
 *
 *
 *
 *  C.I.=(N,M) - 2 DOUBLY FILLED LEVELS USED IN A C.I. INVOLVING 4 M.O.'S
 *  T=         - A TIME OF 172800.0 SECONDS REQUESTED
 *  DUMP=N     - RESTART FILE WRITTEN EVERY 7200.0 SECONDS REQUESTED
 *  RELSCF     - DEFAULT SCF CRITERION MULTIPLIED BY 0.0000
 *              (DEFAULT SCF CRITERION = 0.00010)
 *  ALLVEC     - PRINT ALL EIGENVECTORS
 **********
 *  WARNING: Specified print options may not behave as expected with INDO
 **********
 *******************************************************************************
INDO C.I.=(4,2) AllVEC CHARGE=0 RELSCF=0.000001


   ATOM   CHEMICAL          X               Y               Z
  NUMBER   SYMBOL      (ANGSTROMS)     (ANGSTROMS)     (ANGSTROMS)
 
     1       O         -1.04915086  *   0.47449262  *   0.03270421  *
     2       H         -0.09957110  *   0.34411175  *  -0.23296040  *
     3       H         -1.32987710  *   1.34020761  *  -0.28615410  *
 


          CARTESIAN COORDINATES 

    NO.       ATOM           X           Y           Z

     1         O         -1.0492      0.4745      0.0327
     2         H         -0.0996      0.3441     -0.2330
     3         H         -1.3299      1.3402     -0.2862

           Empirical Formula: H2 O  =     3 atoms



      MOLECULAR POINT GROUP   :   C2v 


      RHF CALCULATION, NO. OF DOUBLY OCCUPIED LEVELS = 4

 WARNING: INDO only performs single-point calculations
  SCF CRITERION =    0.1000E-09

 Summary of symmetry occupancy in each shell:

 SHELL     
    1    4
    v    2
 TOTAL   6




    ROOT NO.    1           2           3           4           5           6

           -40.32645   -19.80912   -14.54366   -12.78634     5.83689     7.84623
  
  
  S  O   1   0.83811     0.01124    -0.38439     0.00000    -0.38383    -0.04862
 PX  O   1   0.08912     0.59665     0.48351     0.29752    -0.32954     0.45295
 PY  O   1   0.11388    -0.49534     0.55758     0.41344    -0.26944    -0.43272
 PZ  O   1  -0.08552     0.03169    -0.43505     0.86055     0.24338     0.05129
  
  S  H   2   0.35918     0.45045     0.24716    -0.00000     0.61117    -0.48320
  
  S  H   3   0.37462    -0.44115     0.23918    -0.00000     0.48859     0.60755


 Reference determinate nber   1 is ALPHA 1 -   4
 SINGLE excitations FROM orbs   3 to   4 INTO orbs   5 to   6
 

 CI excitations=    5:        =  5
 The lowest    5 spin-adapted configurations of multiplicity=  1
     sym   eV   cm**-1 -dets- dipole oscilator X FRAG ....Excitations named from first reference determinate
                       tot  #  Debye  strength
 
   1      0.000      0.  1  1  2.4065 0.000000 0  0 (     )->       )
   2     10.713  86408.  1  1  0.6447 0.031129 1  1 (   4 )->   5   )
   3     11.856  95622.  1  1  0.9378 0.000553 1  1 (   4 )->   6   )
   4     13.303 107294.  1  1  0.8797 0.030276 1  1 (   3 )->   5   )
   5     14.456 116593.  1  1  0.6025 0.213048 1  1 (   3 )->   6   )

 Depression of ground-state after CI=          0. cm**-1 Energy=  -463.9577828 eV
 Dipole moment=  1.359032  1.565529 -1.221993 tot=  2.406474 Debyes


  CI trans.  energy frequency wavelength oscillator ---------polarization---------    dipole   ------components----- 
 st.  symm.    eV      cm-1       nm      strength       x          y         z       moment     x       y       z 

   2     10.7073188    86361.    115.79  0.030397   0.297524   0.413436   0.860553  1.010731  -0.708   0.714  -0.098
   3     11.8614023    95669.    104.53  0.001346   0.297522   0.413438   0.860552  1.195120   1.141  -0.132  -0.331
   4     13.3001229   107273.     93.22  0.033035  -0.848951  -0.297792   0.436581  1.062220  -1.014   0.142   0.283
   5     14.4582619   116614.     85.75  0.210080  -0.749640   0.659336  -0.057588  0.847842   0.651  -0.543   0.036
 
 Polarizability (au  ) xx=    1.61 xy=   -0.92 yy=    1.11 xz=    0.10 yz=    0.08 zz=    0.54
 Polarizability (A**3) xx=    0.24 xy=   -0.14 yy=    0.16 xz=    0.01 yz=    0.01 zz=    0.08
 ***********************************
 ***********************************
 CI Matrix
  1.0000000000  0.0000000000  0.0000000000  0.0000000000  0.0000000000 
  0.0000000000 -0.9974601530  0.0712267025 -0.0000001183  0.0000000002 
  0.0000000000 -0.0712267025 -0.9974601530 -0.0000001230 -0.0000001336 
  0.0000000000  0.0000001262  0.0000001079 -0.9988888829  0.0471274834 
  0.0000000000 -0.0000000153 -0.0000001385  0.0471274834  0.9988888829 
 ***********************************
 ***********************************
 
 
 Major CI contributions to CI states
 
State    1  0.0000     CI coeff  CI percent
    Config       1   1.00000000  1.00000000
 Total coeff printed             1.00000000
  
State    2 10.7073     CI coeff  CI percent
    Config       2  -0.99746015  0.99492676
    Config       3   0.07122670  0.00507324
 Total coeff printed             1.00000000
  
State    3 11.8614     CI coeff  CI percent
    Config       2  -0.07122670  0.00507324
    Config       3  -0.99746015  0.99492676
 Total coeff printed             1.00000000
  
State    4 13.3001     CI coeff  CI percent
    Config       4  -0.99888888  0.99777900
    Config       5   0.04712748  0.00222100
 Total coeff printed             1.00000000
  
State    5 14.4583     CI coeff  CI percent
    Config       4   0.04712748  0.00222100
    Config       5   0.99888888  0.99777900
 Total coeff printed             1.00000000
  

 -------------------------------------------------------------------------------
 INDO C.I.=(4,2) AllVEC CHARGE=0 RELSCF=0.000001




     1SCF WAS SPECIFIED, SO BFGS WAS NOT USED                 
     SCF FIELD WAS ACHIEVED                                   


                              INDO CALCULATION
                                                       MOPAC2016 (Version: 20.173L)
                                                       Thu Jun  1 14:01:06 2023




          FINAL HEAT OF FORMATION =      -8334.90162 KCAL/MOL =  -34873.22838 KJ/MOL


          TOTAL ENERGY            =       -368.53728 EV
          ELECTRONIC ENERGY       =       -463.95778 EV  POINT GROUP:     C2v 
          CORE-CORE REPULSION     =         95.42050 EV
          COSMO AREA              =         42.82 SQUARE ANGSTROMS
          COSMO VOLUME            =         25.43 CUBIC ANGSTROMS

          IONIZATION POTENTIAL    =         12.786343 EV
          HOMO LUMO ENERGIES (EV) =        -12.786  5.837
          NO. OF FILLED LEVELS    =          4
          MOLECULAR WEIGHT        =         18.0152

          MOLECULAR DIMENSIONS (Angstroms)

            Atom       Atom       Distance
            H     3    H     2     1.58388
            O     1    H     3     0.57627
            O     1    H     2     0.00000


          SCF CALCULATIONS        =          1
 
          WALL-CLOCK TIME         =          0.016 SECONDS
          COMPUTATION TIME        =          0.010 SECONDS




   ATOM   CHEMICAL          X               Y               Z
  NUMBER   SYMBOL      (ANGSTROMS)     (ANGSTROMS)     (ANGSTROMS)
 
     1       O         -1.04915086  *   0.47449262  *   0.03270421  *
     2       H         -0.09957110  *   0.34411175  *  -0.23296040  *
     3       H         -1.32987710  *   1.34020761  *  -0.28615410  *

                             CARTESIAN COORDINATES

   1    O       -1.049150858     0.474492616     0.032704213
   2    H       -0.099571098     0.344111749    -0.232960397
   3    H       -1.329877097     1.340207606    -0.286154100


           Empirical Formula: H2 O  =     3 atoms



      MOLECULAR POINT GROUP   :   C2v 


                EIGENVECTORS  


   Root No.       1         2         3         4         5         6

                 1 a1      1 b2      2 a1      1 b1      3 a1      2 b2  

               -40.326   -19.809   -14.544   -12.786     5.837     7.846
  
  S   O    1    0.8381    0.0112   -0.3844    0.0000   -0.3838   -0.0486
  Px  O    1    0.0891    0.5967    0.4835    0.2975   -0.3295    0.4530
  Py  O    1    0.1139   -0.4953    0.5576    0.4134   -0.2694   -0.4327
  Pz  O    1   -0.0855    0.0317   -0.4350    0.8606    0.2434    0.0513
  S   H    2    0.3592    0.4504    0.2472   -0.0000    0.6112   -0.4832
  S   H    3    0.3746   -0.4412    0.2392   -0.0000    0.4886    0.6076


              NET ATOMIC CHARGES AND DIPOLE CONTRIBUTIONS

  ATOM NO.   TYPE          CHARGE      No. of ELECS.   s-Pop       p-Pop       
    1          O          -0.429679        6.4297     1.70063     4.72905
    2          H           0.214006        0.7860     0.78599
    3          H           0.215674        0.7843     0.78433
 DIPOLE           X         Y         Z       TOTAL
 POINT-CHG.     0.685     0.763    -0.603     1.190
 HYBRID         0.674     0.803    -0.619     1.217
 SUM            1.359     1.566    -1.222     2.407


          ATOMIC ORBITAL ELECTRON POPULATIONS

     Atom    s        px        py        pz   
    1  O   1.70063   1.37247   1.48031   1.87627
    2  H   0.78599
    3  H   0.78433

 **********************
 *                    *
 * JOB ENDED NORMALLY *
 *                    *
 **********************



 TOTAL JOB TIME:             0.04 SECONDS

 == MOPAC DONE ==


          MOPAC Job: "./h2oTraj/h2o_97.mop" ended normally on Jun  1, 2023, at 14:01.

rm: cannot remove ‘./h2oTraj/h2o_97.cim’: No such file or directory
rm: cannot remove ‘./h2oTraj/h2o_97.end’: No such file or directory
rm: cannot remove ‘./h2oTraj/h2o_97.log’: No such file or directory
rm: cannot remove ‘./h2oTraj/h2o_97.temp’: No such file or directory
rm: cannot remove ‘./h2oTraj/h2o_97.ple’: No such file or directory
rm: cannot remove ‘./h2oTraj/h2o_97.sts’: No such file or directory
