 *******************************************************************************
 ** Site#:    0         For non-commercial use only    Version 20.173L 64BITS **
 *******************************************************************************
 ** Cite this program as: MOPAC2016, Version: 20.173L, James J. P. Stewart,   **
 ** Stewart Computational Chemistry, web-site: HTTP://OpenMOPAC.net.          **
 *******************************************************************************
 **                                                                           **
 **                                MOPAC2016                                  **
 **                                                                           **
 *******************************************************************************

                              INDO CALCULATION RESULTS

 *******************************************************************************
 *  CALCULATION DONE:                                Thu Jun  1 14:00:59 2023  *
 *  INDO       - The INDO Hamiltonian to be used
 *
 *
 *
 *                 CHARGE ON SYSTEM = 0
 *
 *
 *
 *  C.I.=(N,M) - 2 DOUBLY FILLED LEVELS USED IN A C.I. INVOLVING 4 M.O.'S
 *  T=         - A TIME OF 172800.0 SECONDS REQUESTED
 *  DUMP=N     - RESTART FILE WRITTEN EVERY 7200.0 SECONDS REQUESTED
 *  RELSCF     - DEFAULT SCF CRITERION MULTIPLIED BY 0.0000
 *              (DEFAULT SCF CRITERION = 0.00010)
 *  ALLVEC     - PRINT ALL EIGENVECTORS
 **********
 *  WARNING: Specified print options may not behave as expected with INDO
 **********
 *******************************************************************************
INDO C.I.=(4,2) AllVEC CHARGE=0 RELSCF=0.000001


   ATOM   CHEMICAL          X               Y               Z
  NUMBER   SYMBOL      (ANGSTROMS)     (ANGSTROMS)     (ANGSTROMS)
 
     1       O         -1.05071011  *   0.46195129  *   0.02073838  *
     2       H         -0.08553284  *   0.47211444  *  -0.17177875  *
     3       H         -1.31916528  *   1.41127354  *  -0.15740184  *
 


          CARTESIAN COORDINATES 

    NO.       ATOM           X           Y           Z

     1         O         -1.0507      0.4620      0.0207
     2         H         -0.0855      0.4721     -0.1718
     3         H         -1.3192      1.4113     -0.1574

           Empirical Formula: H2 O  =     3 atoms



      MOLECULAR POINT GROUP   :   C2v 


      RHF CALCULATION, NO. OF DOUBLY OCCUPIED LEVELS = 4

 WARNING: INDO only performs single-point calculations
  SCF CRITERION =    0.1000E-09

 Summary of symmetry occupancy in each shell:

 SHELL     
    1    4
    v    2
 TOTAL   6




    ROOT NO.    1           2           3           4           5           6

           -40.18087   -19.33297   -14.82519   -12.81765     5.83849     7.39544
  
  
  S  O   1   0.83685    -0.00691    -0.39999     0.00000    -0.37199    -0.03555
 PX  O   1   0.10308     0.62641     0.47932     0.18791    -0.24534    -0.52127
 PY  O   1   0.13145    -0.46753     0.64538     0.23222    -0.42204     0.33996
 PZ  O   1  -0.05228    -0.00958    -0.25142     0.95434     0.15100     0.01992
  
  S  H   2   0.37131     0.43842     0.25272    -0.00000     0.49826     0.59815
  
  S  H   3   0.36217    -0.44348     0.25818     0.00000     0.59350    -0.50325


 Reference determinate nber   1 is ALPHA 1 -   4
 SINGLE excitations FROM orbs   3 to   4 INTO orbs   5 to   6
 

 CI excitations=    5:        =  5
 The lowest    5 spin-adapted configurations of multiplicity=  1
     sym   eV   cm**-1 -dets- dipole oscilator X FRAG ....Excitations named from first reference determinate
                       tot  #  Debye  strength
 
   1      0.000      0.  1  1  2.4909 0.000000 0  0 (     )->       )
   2     10.680  86137.  1  1  0.4813 0.029147 1  1 (   4 )->   5   )
   3     11.489  92664.  1  1  0.7982 0.000286 1  1 (   4 )->   6   )
   4     13.650 110098.  1  1  0.7639 0.046764 1  1 (   3 )->   5   )
   5     14.408 116207.  1  1  0.4547 0.228836 1  1 (   3 )->   6   )

 Depression of ground-state after CI=          0. cm**-1 Energy=  -462.7389105 eV
 Dipole moment=  1.419331  1.907116 -0.743527 tot=  2.490868 Debyes


  CI trans.  energy frequency wavelength oscillator ---------polarization---------    dipole   ------components----- 
 st.  symm.    eV      cm-1       nm      strength       x          y         z       moment     x       y       z 

   2     10.6757711    86106.    116.14  0.028625   0.187911   0.232220   0.954339  0.826406   0.711  -0.420  -0.038
   3     11.4926241    92694.    107.88  0.000837   0.187913   0.232220   0.954339  1.026570  -0.255   0.977  -0.187
   4     13.6480776   110079.     90.84  0.049411  -0.277728  -0.919432   0.278411  0.956338   0.248  -0.907   0.172
   5     14.4100335   116225.     86.04  0.226070   0.827004  -0.561585  -0.026187  0.736022  -0.609   0.413   0.019
 
 Polarizability (au  ) xx=    1.72 xy=   -0.95 yy=    1.29 xz=    0.00 yz=    0.01 zz=    0.57
 Polarizability (A**3) xx=    0.25 xy=   -0.14 yy=    0.19 xz=    0.00 yz=    0.00 zz=    0.08
 ***********************************
 ***********************************
 CI Matrix
  1.0000000000  0.0000000000  0.0000000000  0.0000000000  0.0000000000 
  0.0000000000 -0.9976826050  0.0680398390 -0.0000000595 -0.0000000077 
  0.0000000000 -0.0680398390 -0.9976826050 -0.0000000979 -0.0000000721 
  0.0000000000  0.0000000653  0.0000000895 -0.9984910104  0.0549154091 
  0.0000000000 -0.0000000162 -0.0000000765  0.0549154091  0.9984910104 
 ***********************************
 ***********************************
 
 
 Major CI contributions to CI states
 
State    1  0.0000     CI coeff  CI percent
    Config       1   1.00000000  1.00000000
 Total coeff printed             1.00000000
  
State    2 10.6758     CI coeff  CI percent
    Config       2  -0.99768260  0.99537058
    Config       3   0.06803984  0.00462942
 Total coeff printed             1.00000000
  
State    3 11.4926     CI coeff  CI percent
    Config       2  -0.06803984  0.00462942
    Config       3  -0.99768260  0.99537058
 Total coeff printed             1.00000000
  
State    4 13.6481     CI coeff  CI percent
    Config       4  -0.99849101  0.99698430
    Config       5   0.05491541  0.00301570
 Total coeff printed             1.00000000
  
State    5 14.4100     CI coeff  CI percent
    Config       4   0.05491541  0.00301570
    Config       5   0.99849101  0.99698430
 Total coeff printed             1.00000000
  

 -------------------------------------------------------------------------------
 INDO C.I.=(4,2) AllVEC CHARGE=0 RELSCF=0.000001




     1SCF WAS SPECIFIED, SO BFGS WAS NOT USED                 
     SCF FIELD WAS ACHIEVED                                   


                              INDO CALCULATION
                                                       MOPAC2016 (Version: 20.173L)
                                                       Thu Jun  1 14:01:00 2023




          FINAL HEAT OF FORMATION =      -8317.58998 KCAL/MOL =  -34800.79649 KJ/MOL


          TOTAL ENERGY            =       -367.78658 EV
          ELECTRONIC ENERGY       =       -462.73891 EV  POINT GROUP:     C2v 
          CORE-CORE REPULSION     =         94.95233 EV
          COSMO AREA              =         43.27 SQUARE ANGSTROMS
          COSMO VOLUME            =         25.77 CUBIC ANGSTROMS

          IONIZATION POTENTIAL    =         12.817645 EV
          HOMO LUMO ENERGIES (EV) =        -12.818  5.838
          NO. OF FILLED LEVELS    =          4
          MOLECULAR WEIGHT        =         18.0152

          MOLECULAR DIMENSIONS (Angstroms)

            Atom       Atom       Distance
            H     3    H     2     1.55051
            H     2    O     1     0.62106
            O     1    H     3     0.00000


          SCF CALCULATIONS        =          1
 
          WALL-CLOCK TIME         =          0.520 SECONDS
          COMPUTATION TIME        =          0.011 SECONDS




   ATOM   CHEMICAL          X               Y               Z
  NUMBER   SYMBOL      (ANGSTROMS)     (ANGSTROMS)     (ANGSTROMS)
 
     1       O         -1.05071011  *   0.46195129  *   0.02073838  *
     2       H         -0.08553284  *   0.47211444  *  -0.17177875  *
     3       H         -1.31916528  *   1.41127354  *  -0.15740184  *

                             CARTESIAN COORDINATES

   1    O       -1.050710112     0.461951292     0.020738377
   2    H       -0.085532841     0.472114441    -0.171778747
   3    H       -1.319165285     1.411273539    -0.157401839


           Empirical Formula: H2 O  =     3 atoms



      MOLECULAR POINT GROUP   :   C2v 


                EIGENVECTORS  


   Root No.       1         2         3         4         5         6

                 1 a1      1 b2      2 a1      1 b1      3 a1      2 b2  

               -40.181   -19.333   -14.825   -12.818     5.838     7.395
  
  S   O    1    0.8369   -0.0069   -0.4000    0.0000   -0.3720   -0.0356
  Px  O    1    0.1031    0.6264    0.4793    0.1879   -0.2453   -0.5213
  Py  O    1    0.1315   -0.4675    0.6454    0.2322   -0.4220    0.3400
  Pz  O    1   -0.0523   -0.0096   -0.2514    0.9543    0.1510    0.0199
  S   H    2    0.3713    0.4384    0.2527   -0.0000    0.4983    0.5981
  S   H    3    0.3622   -0.4435    0.2582    0.0000    0.5935   -0.5032


              NET ATOMIC CHARGES AND DIPOLE CONTRIBUTIONS

  ATOM NO.   TYPE          CHARGE      No. of ELECS.   s-Pop       p-Pop       
    1          O          -0.423097        6.4231     1.72072     4.70238
    2          H           0.212091        0.7879     0.78791
    3          H           0.211006        0.7890     0.78899
 DIPOLE           X         Y         Z       TOTAL
 POINT-CHG.     0.711     0.972    -0.377     1.262
 HYBRID         0.708     0.935    -0.367     1.229
 SUM            1.419     1.907    -0.744     2.491


          ATOMIC ORBITAL ELECTRON POPULATIONS

     Atom    s        px        py        pz   
    1  O   1.72072   1.33616   1.41261   1.95360
    2  H   0.78791
    3  H   0.78899

 **********************
 *                    *
 * JOB ENDED NORMALLY *
 *                    *
 **********************



 TOTAL JOB TIME:             1.05 SECONDS

 == MOPAC DONE ==


          MOPAC Job: "./h2oTraj/h2o_35.mop" ended normally on Jun  1, 2023, at 14:01.

rm: cannot remove ‘./h2oTraj/h2o_35.cim’: No such file or directory
rm: cannot remove ‘./h2oTraj/h2o_35.end’: No such file or directory
rm: cannot remove ‘./h2oTraj/h2o_35.log’: No such file or directory
rm: cannot remove ‘./h2oTraj/h2o_35.temp’: No such file or directory
rm: cannot remove ‘./h2oTraj/h2o_35.ple’: No such file or directory
rm: cannot remove ‘./h2oTraj/h2o_35.sts’: No such file or directory
