 *******************************************************************************
 ** Site#:    0         For non-commercial use only    Version 20.173L 64BITS **
 *******************************************************************************
 ** Cite this program as: MOPAC2016, Version: 20.173L, James J. P. Stewart,   **
 ** Stewart Computational Chemistry, web-site: HTTP://OpenMOPAC.net.          **
 *******************************************************************************
 **                                                                           **
 **                                MOPAC2016                                  **
 **                                                                           **
 *******************************************************************************

                              INDO CALCULATION RESULTS

 *******************************************************************************
 *  CALCULATION DONE:                                Thu Jun  1 14:01:04 2023  *
 *  INDO       - The INDO Hamiltonian to be used
 *
 *
 *
 *                 CHARGE ON SYSTEM = 0
 *
 *
 *
 *  C.I.=(N,M) - 2 DOUBLY FILLED LEVELS USED IN A C.I. INVOLVING 4 M.O.'S
 *  T=         - A TIME OF 172800.0 SECONDS REQUESTED
 *  DUMP=N     - RESTART FILE WRITTEN EVERY 7200.0 SECONDS REQUESTED
 *  RELSCF     - DEFAULT SCF CRITERION MULTIPLIED BY 0.0000
 *              (DEFAULT SCF CRITERION = 0.00010)
 *  ALLVEC     - PRINT ALL EIGENVECTORS
 **********
 *  WARNING: Specified print options may not behave as expected with INDO
 **********
 *******************************************************************************
INDO C.I.=(4,2) AllVEC CHARGE=0 RELSCF=0.000001


   ATOM   CHEMICAL          X               Y               Z
  NUMBER   SYMBOL      (ANGSTROMS)     (ANGSTROMS)     (ANGSTROMS)
 
     1       O         -1.05382355  *   0.47352484  *   0.03196786  *
     2       H         -0.11090000  *   0.34973047  *  -0.18037872  *
     3       H         -1.24437845  *   1.34995047  *  -0.32704769  *
 


          CARTESIAN COORDINATES 

    NO.       ATOM           X           Y           Z

     1         O         -1.0538      0.4735      0.0320
     2         H         -0.1109      0.3497     -0.1804
     3         H         -1.2444      1.3500     -0.3270

           Empirical Formula: H2 O  =     3 atoms



      MOLECULAR POINT GROUP   :   C2v 


      RHF CALCULATION, NO. OF DOUBLY OCCUPIED LEVELS = 4

 WARNING: INDO only performs single-point calculations
  SCF CRITERION =    0.1000E-09

 Summary of symmetry occupancy in each shell:

 SHELL     
    1    4
    v    2
 TOTAL   6




    ROOT NO.    1           2           3           4           5           6

           -40.68921   -19.53652   -14.80162   -12.82447     6.17552     7.73304
  
  
  S  O   1   0.83215     0.00296    -0.40138    -0.00000    -0.38227    -0.01665
 PX  O   1   0.10803     0.58183     0.52372     0.25136    -0.32987     0.45114
 PY  O   1   0.11206    -0.51734     0.53008     0.41319    -0.29822    -0.42327
 PZ  O   1  -0.08393     0.07713    -0.40064     0.87527     0.23551     0.07026
  
  S  H   2   0.36958     0.44166     0.24920     0.00000     0.56941    -0.53106
  
  S  H   3   0.37372    -0.43911     0.24699     0.00000     0.52577     0.57453


 Reference determinate nber   1 is ALPHA 1 -   4
 SINGLE excitations FROM orbs   3 to   4 INTO orbs   5 to   6
 

 CI excitations=    5:        =  5
 The lowest    5 spin-adapted configurations of multiplicity=  1
     sym   eV   cm**-1 -dets- dipole oscilator X FRAG ....Excitations named from first reference determinate
                       tot  #  Debye  strength
 
   1      0.000      0.  1  1  2.4755 0.000000 0  0 (     )->       )
   2     11.021  88890.  1  1  0.2426 0.031765 1  1 (   4 )->   5   )
   3     11.788  95079.  1  1  0.7275 0.000064 1  1 (   4 )->   6   )
   4     13.863 111816.  1  1  0.6590 0.037315 1  1 (   3 )->   5   )
   5     14.643 118105.  1  1  0.2087 0.218621 1  1 (   3 )->   6   )

 Depression of ground-state after CI=          0. cm**-1 Energy=  -464.9779568 eV
 Dipole moment=  1.532277  1.551113 -1.172277 tot=  2.475491 Debyes


  CI trans.  energy frequency wavelength oscillator ---------polarization---------    dipole   ------components----- 
 st.  symm.    eV      cm-1       nm      strength       x          y         z       moment     x       y       z 

   2     11.0199730    88882.    112.51  0.031627   0.251357   0.413191   0.875267  0.410989  -0.223   0.333  -0.093
   3     11.7891595    95086.    105.17  0.000209   0.251363   0.413182   0.875270  0.794186   0.714   0.187  -0.293
   4     13.8629286   111812.     89.44  0.037831  -0.732593  -0.509777   0.451037  0.707660  -0.635  -0.170   0.263
   5     14.6435716   118109.     84.67  0.218082  -0.731469   0.673301  -0.107787  0.332628   0.221  -0.243   0.051
 
 Polarizability (au  ) xx=    1.48 xy=   -0.89 yy=    1.24 xz=    0.16 yz=   -0.05 zz=    0.56
 Polarizability (A**3) xx=    0.22 xy=   -0.13 yy=    0.18 xz=    0.02 yz=   -0.01 zz=    0.08
 ***********************************
 ***********************************
 CI Matrix
  1.0000000000  0.0000000000  0.0000000000  0.0000000000  0.0000000000 
  0.0000000000 -0.9993908797  0.0348979886  0.0000001612  0.0000000096 
  0.0000000000 -0.0348979886 -0.9993908797  0.0000001248  0.0000001641 
  0.0000000000 -0.0000001651 -0.0000001151 -0.9997065287  0.0242251221 
  0.0000000000  0.0000000193  0.0000001665  0.0242251221  0.9997065287 
 ***********************************
 ***********************************
 
 
 Major CI contributions to CI states
 
State    1  0.0000     CI coeff  CI percent
    Config       1   1.00000000  1.00000000
 Total coeff printed             1.00000000
  
State    2 11.0200     CI coeff  CI percent
    Config       2  -0.99939088  0.99878213
 Total coeff printed             0.99878213
  
State    3 11.7892     CI coeff  CI percent
    Config       3  -0.99939088  0.99878213
 Total coeff printed             0.99878213
  
State    4 13.8629     CI coeff  CI percent
    Config       4  -0.99970653  0.99941314
 Total coeff printed             0.99941314
  
State    5 14.6436     CI coeff  CI percent
    Config       5   0.99970653  0.99941314
 Total coeff printed             0.99941314
  

 -------------------------------------------------------------------------------
 INDO C.I.=(4,2) AllVEC CHARGE=0 RELSCF=0.000001




     1SCF WAS SPECIFIED, SO BFGS WAS NOT USED                 
     SCF FIELD WAS ACHIEVED                                   


                              INDO CALCULATION
                                                       MOPAC2016 (Version: 20.173L)
                                                       Thu Jun  1 14:01:04 2023




          FINAL HEAT OF FORMATION =      -8347.16744 KCAL/MOL =  -34924.54855 KJ/MOL


          TOTAL ENERGY            =       -369.06918 EV
          ELECTRONIC ENERGY       =       -464.97796 EV  POINT GROUP:     C2v 
          CORE-CORE REPULSION     =         95.90878 EV
          COSMO AREA              =         42.68 SQUARE ANGSTROMS
          COSMO VOLUME            =         25.40 CUBIC ANGSTROMS

          IONIZATION POTENTIAL    =         12.824471 EV
          HOMO LUMO ENERGIES (EV) =        -12.824  6.176
          NO. OF FILLED LEVELS    =          4
          MOLECULAR WEIGHT        =         18.0152

          MOLECULAR DIMENSIONS (Angstroms)

            Atom       Atom       Distance
            H     3    H     2     1.51879
            O     1    H     3     0.60392
            H     2    O     1     0.00000


          SCF CALCULATIONS        =          1
 
          WALL-CLOCK TIME         =          0.270 SECONDS
          COMPUTATION TIME        =          0.010 SECONDS




   ATOM   CHEMICAL          X               Y               Z
  NUMBER   SYMBOL      (ANGSTROMS)     (ANGSTROMS)     (ANGSTROMS)
 
     1       O         -1.05382355  *   0.47352484  *   0.03196786  *
     2       H         -0.11090000  *   0.34973047  *  -0.18037872  *
     3       H         -1.24437845  *   1.34995047  *  -0.32704769  *

                             CARTESIAN COORDINATES

   1    O       -1.053823551     0.473524836     0.031967863
   2    H       -0.110900002     0.349730470    -0.180378716
   3    H       -1.244378451     1.349950473    -0.327047685


           Empirical Formula: H2 O  =     3 atoms



      MOLECULAR POINT GROUP   :   C2v 


                EIGENVECTORS  


   Root No.       1         2         3         4         5         6

                 1 a1      1 b2      2 a1      1 b1      3 a1      2 b2  

               -40.689   -19.537   -14.802   -12.824     6.176     7.733
  
  S   O    1    0.8322    0.0030   -0.4014   -0.0000   -0.3823   -0.0166
  Px  O    1    0.1080    0.5818    0.5237    0.2514   -0.3299    0.4511
  Py  O    1    0.1121   -0.5173    0.5301    0.4132   -0.2982   -0.4233
  Pz  O    1   -0.0839    0.0771   -0.4006    0.8753    0.2355    0.0703
  S   H    2    0.3696    0.4417    0.2492    0.0000    0.5694   -0.5311
  S   H    3    0.3737   -0.4391    0.2470    0.0000    0.5258    0.5745


              NET ATOMIC CHARGES AND DIPOLE CONTRIBUTIONS

  ATOM NO.   TYPE          CHARGE      No. of ELECS.   s-Pop       p-Pop       
    1          O          -0.425510        6.4255     1.70718     4.71833
    2          H           0.212491        0.7875     0.78751
    3          H           0.213020        0.7870     0.78698
 DIPOLE           X         Y         Z       TOTAL
 POINT-CHG.     0.767     0.770    -0.584     1.234
 HYBRID         0.765     0.781    -0.588     1.241
 SUM            1.532     1.551    -1.172     2.476


          ATOMIC ORBITAL ELECTRON POPULATIONS

     Atom    s        px        py        pz   
    1  O   1.70718   1.37532   1.46381   1.87920
    2  H   0.78751
    3  H   0.78698

 **********************
 *                    *
 * JOB ENDED NORMALLY *
 *                    *
 **********************



 TOTAL JOB TIME:             0.55 SECONDS

 == MOPAC DONE ==


          MOPAC Job: "./h2oTraj/h2o_76.mop" ended normally on Jun  1, 2023, at 14:01.

rm: cannot remove ‘./h2oTraj/h2o_76.cim’: No such file or directory
rm: cannot remove ‘./h2oTraj/h2o_76.end’: No such file or directory
rm: cannot remove ‘./h2oTraj/h2o_76.log’: No such file or directory
rm: cannot remove ‘./h2oTraj/h2o_76.temp’: No such file or directory
rm: cannot remove ‘./h2oTraj/h2o_76.ple’: No such file or directory
rm: cannot remove ‘./h2oTraj/h2o_76.sts’: No such file or directory
