 *******************************************************************************
 ** Site#:    0         For non-commercial use only    Version 20.173L 64BITS **
 *******************************************************************************
 ** Cite this program as: MOPAC2016, Version: 20.173L, James J. P. Stewart,   **
 ** Stewart Computational Chemistry, web-site: HTTP://OpenMOPAC.net.          **
 *******************************************************************************
 **                                                                           **
 **                                MOPAC2016                                  **
 **                                                                           **
 *******************************************************************************

                              INDO CALCULATION RESULTS

 *******************************************************************************
 *  CALCULATION DONE:                                Thu Jun  1 14:01:06 2023  *
 *  INDO       - The INDO Hamiltonian to be used
 *
 *
 *
 *                 CHARGE ON SYSTEM = 0
 *
 *
 *
 *  C.I.=(N,M) - 2 DOUBLY FILLED LEVELS USED IN A C.I. INVOLVING 4 M.O.'S
 *  T=         - A TIME OF 172800.0 SECONDS REQUESTED
 *  DUMP=N     - RESTART FILE WRITTEN EVERY 7200.0 SECONDS REQUESTED
 *  RELSCF     - DEFAULT SCF CRITERION MULTIPLIED BY 0.0000
 *              (DEFAULT SCF CRITERION = 0.00010)
 *  ALLVEC     - PRINT ALL EIGENVECTORS
 **********
 *  WARNING: Specified print options may not behave as expected with INDO
 **********
 *******************************************************************************
INDO C.I.=(4,2) AllVEC CHARGE=0 RELSCF=0.000001


   ATOM   CHEMICAL          X               Y               Z
  NUMBER   SYMBOL      (ANGSTROMS)     (ANGSTROMS)     (ANGSTROMS)
 
     1       O         -1.04863336  *   0.47389388  *   0.03656119  *
     2       H         -0.13387482  *   0.33930891  *  -0.23233533  *
     3       H         -1.30378758  *   1.35451412  *  -0.34800099  *
 


          CARTESIAN COORDINATES 

    NO.       ATOM           X           Y           Z

     1         O         -1.0486      0.4739      0.0366
     2         H         -0.1339      0.3393     -0.2323
     3         H         -1.3038      1.3545     -0.3480

           Empirical Formula: H2 O  =     3 atoms



      MOLECULAR POINT GROUP   :   C2v 


      RHF CALCULATION, NO. OF DOUBLY OCCUPIED LEVELS = 4

 WARNING: INDO only performs single-point calculations
  SCF CRITERION =    0.1000E-09

 Summary of symmetry occupancy in each shell:

 SHELL     
    1    4
    v    2
 TOTAL   6




    ROOT NO.    1           2           3           4           5           6

           -40.43867   -19.61839   -14.69488   -12.80805     5.95130     7.73499
  
  
  S  O   1   0.83561    -0.01147    -0.39383    -0.00000    -0.37873    -0.05550
 PX  O   1   0.10386     0.59406     0.48362     0.31211    -0.21734    -0.50771
 PY  O   1   0.10117    -0.50200     0.52158     0.45471    -0.35710     0.36253
 PZ  O   1  -0.09401     0.05137    -0.46526     0.83417     0.27597    -0.00766
  
  S  H   2   0.37650     0.43816     0.24321     0.00000     0.47387     0.61851
  
  S  H   3   0.36075    -0.44758     0.25167     0.00000     0.61732    -0.47445


 Reference determinate nber   1 is ALPHA 1 -   4
 SINGLE excitations FROM orbs   3 to   4 INTO orbs   5 to   6
 

 CI excitations=    5:        =  5
 The lowest    5 spin-adapted configurations of multiplicity=  1
     sym   eV   cm**-1 -dets- dipole oscilator X FRAG ....Excitations named from first reference determinate
                       tot  #  Debye  strength
 
   1      0.000      0.  1  1  2.4486 0.000000 0  0 (     )->       )
   2     10.805  87147.  1  1  0.7286 0.030568 1  1 (   4 )->   5   )
   3     11.784  95043.  1  1  0.9699 0.000716 1  1 (   4 )->   6   )
   4     13.565 109410.  1  1  0.9361 0.038377 1  1 (   3 )->   5   )
   5     14.537 117246.  1  1  0.6864 0.215950 1  1 (   3 )->   6   )

 Depression of ground-state after CI=          0. cm**-1 Energy=  -464.1214352 eV
 Dipole moment=  1.393639  1.502337 -1.340362 tot=  2.448635 Debyes


  CI trans.  energy frequency wavelength oscillator ---------polarization---------    dipole   ------components----- 
 st.  symm.    eV      cm-1       nm      strength       x          y         z       moment     x       y       z 

   2     10.7965688    87080.    114.84  0.029485   0.312105   0.454706   0.834166  1.179425   0.961  -0.683   0.013
   3     11.7920724    95110.    105.14  0.001874   0.312104   0.454707   0.834165  1.313368  -0.455   1.145  -0.454
   4     13.5610885   109378.     91.43  0.042753  -0.137699  -0.847103   0.513279  1.190025   0.426  -1.035   0.405
   5     14.5406768   117279.     85.27  0.211306   0.790606  -0.611185   0.037351  1.007482  -0.784   0.631  -0.051
 
 Polarizability (au  ) xx=    1.46 xy=   -0.93 yy=    1.32 xz=    0.18 yz=   -0.05 zz=    0.55
 Polarizability (A**3) xx=    0.22 xy=   -0.14 yy=    0.20 xz=    0.03 yz=   -0.01 zz=    0.08
 ***********************************
 ***********************************
 CI Matrix
  1.0000000000  0.0000000000  0.0000000000  0.0000000000  0.0000000000 
  0.0000000000 -0.9958451835  0.0910624539  0.0000001068 -0.0000000162 
  0.0000000000 -0.0910624539 -0.9958451835 -0.0000000605  0.0000000830 
  0.0000000000 -0.0000001012  0.0000000752 -0.9979499414  0.0639993313 
  0.0000000000 -0.0000000021  0.0000000795  0.0639993313  0.9979499414 
 ***********************************
 ***********************************
 
 
 Major CI contributions to CI states
 
State    1  0.0000     CI coeff  CI percent
    Config       1   1.00000000  1.00000000
 Total coeff printed             1.00000000
  
State    2 10.7966     CI coeff  CI percent
    Config       2  -0.99584518  0.99170763
    Config       3   0.09106245  0.00829237
 Total coeff printed             1.00000000
  
State    3 11.7921     CI coeff  CI percent
    Config       2  -0.09106245  0.00829237
    Config       3  -0.99584518  0.99170763
 Total coeff printed             1.00000000
  
State    4 13.5611     CI coeff  CI percent
    Config       4  -0.99794994  0.99590409
    Config       5   0.06399933  0.00409591
 Total coeff printed             1.00000000
  
State    5 14.5407     CI coeff  CI percent
    Config       4   0.06399933  0.00409591
    Config       5   0.99794994  0.99590409
 Total coeff printed             1.00000000
  

 -------------------------------------------------------------------------------
 INDO C.I.=(4,2) AllVEC CHARGE=0 RELSCF=0.000001




     1SCF WAS SPECIFIED, SO BFGS WAS NOT USED                 
     SCF FIELD WAS ACHIEVED                                   


                              INDO CALCULATION
                                                       MOPAC2016 (Version: 20.173L)
                                                       Thu Jun  1 14:01:06 2023




          FINAL HEAT OF FORMATION =      -8336.42146 KCAL/MOL =  -34879.58737 KJ/MOL


          TOTAL ENERGY            =       -368.60319 EV
          ELECTRONIC ENERGY       =       -464.12144 EV  POINT GROUP:     C2v 
          CORE-CORE REPULSION     =         95.51825 EV
          COSMO AREA              =         42.74 SQUARE ANGSTROMS
          COSMO VOLUME            =         25.39 CUBIC ANGSTROMS

          IONIZATION POTENTIAL    =         12.808050 EV
          HOMO LUMO ENERGIES (EV) =        -12.808  5.951
          NO. OF FILLED LEVELS    =          4
          MOLECULAR WEIGHT        =         18.0152

          MOLECULAR DIMENSIONS (Angstroms)

            Atom       Atom       Distance
            H     3    H     2     1.55329
            O     1    H     3     0.59521
            H     2    O     1     0.00000


          SCF CALCULATIONS        =          1
 
          WALL-CLOCK TIME         =          0.082 SECONDS
          COMPUTATION TIME        =          0.010 SECONDS




   ATOM   CHEMICAL          X               Y               Z
  NUMBER   SYMBOL      (ANGSTROMS)     (ANGSTROMS)     (ANGSTROMS)
 
     1       O         -1.04863336  *   0.47389388  *   0.03656119  *
     2       H         -0.13387482  *   0.33930891  *  -0.23233533  *
     3       H         -1.30378758  *   1.35451412  *  -0.34800099  *

                             CARTESIAN COORDINATES

   1    O       -1.048633362     0.473893884     0.036561188
   2    H       -0.133874825     0.339308910    -0.232335330
   3    H       -1.303787581     1.354514120    -0.348000990


           Empirical Formula: H2 O  =     3 atoms



      MOLECULAR POINT GROUP   :   C2v 


                EIGENVECTORS  


   Root No.       1         2         3         4         5         6

                 1 a1      1 b2      2 a1      1 b1      3 a1      2 b2  

               -40.439   -19.618   -14.695   -12.808     5.951     7.735
  
  S   O    1    0.8356   -0.0115   -0.3938   -0.0000   -0.3787   -0.0555
  Px  O    1    0.1039    0.5941    0.4836    0.3121   -0.2173   -0.5077
  Py  O    1    0.1012   -0.5020    0.5216    0.4547   -0.3571    0.3625
  Pz  O    1   -0.0940    0.0514   -0.4653    0.8342    0.2760   -0.0077
  S   H    2    0.3765    0.4382    0.2432    0.0000    0.4739    0.6185
  S   H    3    0.3608   -0.4476    0.2517    0.0000    0.6173   -0.4744


              NET ATOMIC CHARGES AND DIPOLE CONTRIBUTIONS

  ATOM NO.   TYPE          CHARGE      No. of ELECS.   s-Pop       p-Pop       
    1          O          -0.426600        6.4266     1.70696     4.71964
    2          H           0.214226        0.7858     0.78577
    3          H           0.212374        0.7876     0.78763
 DIPOLE           X         Y         Z       TOTAL
 POINT-CHG.     0.681     0.760    -0.669     1.220
 HYBRID         0.713     0.743    -0.671     1.229
 SUM            1.394     1.502    -1.340     2.449


          ATOMIC ORBITAL ELECTRON POPULATIONS

     Atom    s        px        py        pz   
    1  O   1.70696   1.38999   1.48209   1.84756
    2  H   0.78577
    3  H   0.78763

 **********************
 *                    *
 * JOB ENDED NORMALLY *
 *                    *
 **********************



 TOTAL JOB TIME:             0.17 SECONDS

 == MOPAC DONE ==


          MOPAC Job: "./h2oTraj/h2o_85.mop" ended normally on Jun  1, 2023, at 14:01.

rm: cannot remove ‘./h2oTraj/h2o_85.cim’: No such file or directory
rm: cannot remove ‘./h2oTraj/h2o_85.end’: No such file or directory
rm: cannot remove ‘./h2oTraj/h2o_85.log’: No such file or directory
rm: cannot remove ‘./h2oTraj/h2o_85.temp’: No such file or directory
rm: cannot remove ‘./h2oTraj/h2o_85.ple’: No such file or directory
rm: cannot remove ‘./h2oTraj/h2o_85.sts’: No such file or directory
