 *******************************************************************************
 ** Site#:    0         For non-commercial use only    Version 20.173L 64BITS **
 *******************************************************************************
 ** Cite this program as: MOPAC2016, Version: 20.173L, James J. P. Stewart,   **
 ** Stewart Computational Chemistry, web-site: HTTP://OpenMOPAC.net.          **
 *******************************************************************************
 **                                                                           **
 **                                MOPAC2016                                  **
 **                                                                           **
 *******************************************************************************

                              INDO CALCULATION RESULTS

 *******************************************************************************
 *  CALCULATION DONE:                                Thu Jun  1 14:00:59 2023  *
 *  INDO       - The INDO Hamiltonian to be used
 *
 *
 *
 *                 CHARGE ON SYSTEM = 0
 *
 *
 *
 *  C.I.=(N,M) - 2 DOUBLY FILLED LEVELS USED IN A C.I. INVOLVING 4 M.O.'S
 *  T=         - A TIME OF 172800.0 SECONDS REQUESTED
 *  DUMP=N     - RESTART FILE WRITTEN EVERY 7200.0 SECONDS REQUESTED
 *  RELSCF     - DEFAULT SCF CRITERION MULTIPLIED BY 0.0000
 *              (DEFAULT SCF CRITERION = 0.00010)
 *  ALLVEC     - PRINT ALL EIGENVECTORS
 **********
 *  WARNING: Specified print options may not behave as expected with INDO
 **********
 *******************************************************************************
INDO C.I.=(4,2) AllVEC CHARGE=0 RELSCF=0.000001


   ATOM   CHEMICAL          X               Y               Z
  NUMBER   SYMBOL      (ANGSTROMS)     (ANGSTROMS)     (ANGSTROMS)
 
     1       O         -1.05130641  *   0.46409696  *   0.01831086  *
     2       H         -0.11204011  *   0.43137151  *  -0.13232974  *
     3       H         -1.28319291  *   1.41795823  *  -0.15831880  *
 


          CARTESIAN COORDINATES 

    NO.       ATOM           X           Y           Z

     1         O         -1.0513      0.4641      0.0183
     2         H         -0.1120      0.4314     -0.1323
     3         H         -1.2832      1.4180     -0.1583

           Empirical Formula: H2 O  =     3 atoms



      MOLECULAR POINT GROUP   :   C2v 


      RHF CALCULATION, NO. OF DOUBLY OCCUPIED LEVELS = 4

 WARNING: INDO only performs single-point calculations
  SCF CRITERION =    0.1000E-09

 Summary of symmetry occupancy in each shell:

 SHELL     
    1    4
    v    2
 TOTAL   6




    ROOT NO.    1           2           3           4           5           6

           -40.58306   -19.53580   -14.77218   -12.81938     6.02727     7.76119
  
  
  S  O   1   0.83344    -0.01641    -0.39899     0.00000    -0.37275    -0.08354
 PX  O   1   0.11498     0.60877     0.51525     0.16195    -0.20186    -0.53266
 PY  O   1   0.12420    -0.48993     0.63166     0.21760    -0.44713     0.31349
 PZ  O   1  -0.04742     0.00833    -0.22950     0.96251     0.13505     0.01875
  
  S  H   2   0.38165     0.43411     0.24245    -0.00000     0.42892     0.65049
  
  S  H   3   0.35894    -0.44786     0.25472     0.00000     0.64667    -0.43304


 Reference determinate nber   1 is ALPHA 1 -   4
 SINGLE excitations FROM orbs   3 to   4 INTO orbs   5 to   6
 

 CI excitations=    5:        =  5
 The lowest    5 spin-adapted configurations of multiplicity=  1
     sym   eV   cm**-1 -dets- dipole oscilator X FRAG ....Excitations named from first reference determinate
                       tot  #  Debye  strength
 
   1      0.000      0.  1  1  2.4692 0.000000 0  0 (     )->       )
   2     10.856  87563.  1  1  1.0698 0.029751 1  1 (   4 )->   5   )
   3     11.836  95464.  1  1  1.1994 0.001629 1  1 (   4 )->   6   )
   4     13.699 110493.  1  1  1.2008 0.047363 1  1 (   3 )->   5   )
   5     14.654 118191.  1  1  1.0131 0.210542 1  1 (   3 )->   6   )

 Depression of ground-state after CI=          0. cm**-1 Energy=  -464.5488943 eV
 Dipole moment=  1.503315  1.840941 -0.669140 tot=  2.469163 Debyes


  CI trans.  energy frequency wavelength oscillator ---------polarization---------    dipole   ------components----- 
 st.  symm.    eV      cm-1       nm      strength       x          y         z       moment     x       y       z 

   2     10.8390043    87423.    114.39  0.027487   0.161950   0.217601   0.962508  1.660497   1.374  -0.932  -0.020
   3     11.8534676    95605.    104.60  0.004055  -0.161950  -0.217601  -0.962508  1.703765  -0.818   1.482  -0.197
   4     13.6904220   110421.     90.56  0.056863   0.001433  -0.975435   0.220283  1.588018   0.782  -1.371   0.178
   5     14.6626974   118263.     84.56  0.200463   0.828780  -0.559424  -0.012976  1.454877  -1.166   0.870  -0.001
 
 Polarizability (au  ) xx=    1.44 xy=   -0.94 yy=    1.32 xz=    0.07 yz=   -0.01 zz=    0.57
 Polarizability (A**3) xx=    0.21 xy=   -0.14 yy=    0.20 xz=    0.01 yz=   -0.00 zz=    0.09
 ***********************************
 ***********************************
 CI Matrix
  1.0000000000  0.0000000000  0.0000000000  0.0000000000  0.0000000000 
  0.0000000000 -0.9913623578  0.1311513458  0.0000000289 -0.0000000094 
  0.0000000000  0.1311513458  0.9913623578  0.0000001020  0.0000000132 
  0.0000000000 -0.0000000163  0.0000001033 -0.9953740169  0.0960758368 
  0.0000000000 -0.0000000096 -0.0000000219  0.0960758368  0.9953740169 
 ***********************************
 ***********************************
 
 
 Major CI contributions to CI states
 
State    1  0.0000     CI coeff  CI percent
    Config       1   1.00000000  1.00000000
 Total coeff printed             1.00000000
  
State    2 10.8390     CI coeff  CI percent
    Config       2  -0.99136236  0.98279932
    Config       3   0.13115135  0.01720068
 Total coeff printed             1.00000000
  
State    3 11.8535     CI coeff  CI percent
    Config       2   0.13115135  0.01720068
    Config       3   0.99136236  0.98279932
 Total coeff printed             1.00000000
  
State    4 13.6904     CI coeff  CI percent
    Config       4  -0.99537402  0.99076943
    Config       5   0.09607584  0.00923057
 Total coeff printed             1.00000000
  
State    5 14.6627     CI coeff  CI percent
    Config       4   0.09607584  0.00923057
    Config       5   0.99537402  0.99076943
 Total coeff printed             1.00000000
  

 -------------------------------------------------------------------------------
 INDO C.I.=(4,2) AllVEC CHARGE=0 RELSCF=0.000001




     1SCF WAS SPECIFIED, SO BFGS WAS NOT USED                 
     SCF FIELD WAS ACHIEVED                                   


                              INDO CALCULATION
                                                       MOPAC2016 (Version: 20.173L)
                                                       Thu Jun  1 14:01:00 2023




          FINAL HEAT OF FORMATION =      -8341.60414 KCAL/MOL =  -34901.27171 KJ/MOL


          TOTAL ENERGY            =       -368.82793 EV
          ELECTRONIC ENERGY       =       -464.54889 EV  POINT GROUP:     C2v 
          CORE-CORE REPULSION     =         95.72097 EV
          COSMO AREA              =         42.74 SQUARE ANGSTROMS
          COSMO VOLUME            =         25.38 CUBIC ANGSTROMS

          IONIZATION POTENTIAL    =         12.819384 EV
          HOMO LUMO ENERGIES (EV) =        -12.819  6.027
          NO. OF FILLED LEVELS    =          4
          MOLECULAR WEIGHT        =         18.0152

          MOLECULAR DIMENSIONS (Angstroms)

            Atom       Atom       Distance
            H     3    H     2     1.53154
            H     2    O     1     0.60262
            H     2    O     1     0.00000


          SCF CALCULATIONS        =          1
 
          WALL-CLOCK TIME         =          0.516 SECONDS
          COMPUTATION TIME        =          0.010 SECONDS




   ATOM   CHEMICAL          X               Y               Z
  NUMBER   SYMBOL      (ANGSTROMS)     (ANGSTROMS)     (ANGSTROMS)
 
     1       O         -1.05130641  *   0.46409696  *   0.01831086  *
     2       H         -0.11204011  *   0.43137151  *  -0.13232974  *
     3       H         -1.28319291  *   1.41795823  *  -0.15831880  *

                             CARTESIAN COORDINATES

   1    O       -1.051306414     0.464096961     0.018310858
   2    H       -0.112040105     0.431371510    -0.132329735
   3    H       -1.283192913     1.417958230    -0.158318801


           Empirical Formula: H2 O  =     3 atoms



      MOLECULAR POINT GROUP   :   C2v 


                EIGENVECTORS  


   Root No.       1         2         3         4         5         6

                 1 a1      1 b2      2 a1      1 b1      5 ????    6 ????

               -40.583   -19.536   -14.772   -12.819     6.027     7.761
  
  S   O    1    0.8334   -0.0164   -0.3990    0.0000   -0.3727   -0.0835
  Px  O    1    0.1150    0.6088    0.5152    0.1619   -0.2019   -0.5327
  Py  O    1    0.1242   -0.4899    0.6317    0.2176   -0.4471    0.3135
  Pz  O    1   -0.0474    0.0083   -0.2295    0.9625    0.1351    0.0188
  S   H    2    0.3816    0.4341    0.2424   -0.0000    0.4289    0.6505
  S   H    3    0.3589   -0.4479    0.2547    0.0000    0.6467   -0.4330


              NET ATOMIC CHARGES AND DIPOLE CONTRIBUTIONS

  ATOM NO.   TYPE          CHARGE      No. of ELECS.   s-Pop       p-Pop       
    1          O          -0.425633        6.4256     1.70816     4.71747
    2          H           0.214227        0.7858     0.78577
    3          H           0.211406        0.7886     0.78859
 DIPOLE           X         Y         Z       TOTAL
 POINT-CHG.     0.731     0.935    -0.334     1.233
 HYBRID         0.772     0.906    -0.335     1.237
 SUM            1.503     1.841    -0.669     2.469


          ATOMIC ORBITAL ELECTRON POPULATIONS

     Atom    s        px        py        pz   
    1  O   1.70816   1.35105   1.40360   1.96282
    2  H   0.78577
    3  H   0.78859

 **********************
 *                    *
 * JOB ENDED NORMALLY *
 *                    *
 **********************



 TOTAL JOB TIME:             1.04 SECONDS

 == MOPAC DONE ==


          MOPAC Job: "./h2oTraj/h2o_40.mop" ended normally on Jun  1, 2023, at 14:01.

rm: cannot remove ‘./h2oTraj/h2o_40.cim’: No such file or directory
rm: cannot remove ‘./h2oTraj/h2o_40.end’: No such file or directory
rm: cannot remove ‘./h2oTraj/h2o_40.log’: No such file or directory
rm: cannot remove ‘./h2oTraj/h2o_40.temp’: No such file or directory
rm: cannot remove ‘./h2oTraj/h2o_40.ple’: No such file or directory
rm: cannot remove ‘./h2oTraj/h2o_40.sts’: No such file or directory
