 *******************************************************************************
 ** Site#:    0         For non-commercial use only    Version 20.173L 64BITS **
 *******************************************************************************
 ** Cite this program as: MOPAC2016, Version: 20.173L, James J. P. Stewart,   **
 ** Stewart Computational Chemistry, web-site: HTTP://OpenMOPAC.net.          **
 *******************************************************************************
 **                                                                           **
 **                                MOPAC2016                                  **
 **                                                                           **
 *******************************************************************************

                              INDO CALCULATION RESULTS

 *******************************************************************************
 *  CALCULATION DONE:                                Thu Jun  1 14:01:01 2023  *
 *  INDO       - The INDO Hamiltonian to be used
 *
 *
 *
 *                 CHARGE ON SYSTEM = 0
 *
 *
 *
 *  C.I.=(N,M) - 2 DOUBLY FILLED LEVELS USED IN A C.I. INVOLVING 4 M.O.'S
 *  T=         - A TIME OF 172800.0 SECONDS REQUESTED
 *  DUMP=N     - RESTART FILE WRITTEN EVERY 7200.0 SECONDS REQUESTED
 *  RELSCF     - DEFAULT SCF CRITERION MULTIPLIED BY 0.0000
 *              (DEFAULT SCF CRITERION = 0.00010)
 *  ALLVEC     - PRINT ALL EIGENVECTORS
 **********
 *  WARNING: Specified print options may not behave as expected with INDO
 **********
 *******************************************************************************
INDO C.I.=(4,2) AllVEC CHARGE=0 RELSCF=0.000001


   ATOM   CHEMICAL          X               Y               Z
  NUMBER   SYMBOL      (ANGSTROMS)     (ANGSTROMS)     (ANGSTROMS)
 
     1       O         -1.04666946  *   0.46957503  *   0.02646940  *
     2       H         -0.11427355  *   0.43024497  *  -0.19187163  *
     3       H         -1.35456196  *   1.33213132  *  -0.22827752  *
 


          CARTESIAN COORDINATES 

    NO.       ATOM           X           Y           Z

     1         O         -1.0467      0.4696      0.0265
     2         H         -0.1143      0.4302     -0.1919
     3         H         -1.3546      1.3321     -0.2283

           Empirical Formula: H2 O  =     3 atoms



      MOLECULAR POINT GROUP   :   C2v 


      RHF CALCULATION, NO. OF DOUBLY OCCUPIED LEVELS = 4

 WARNING: INDO only performs single-point calculations
  SCF CRITERION =    0.1000E-09

 Summary of symmetry occupancy in each shell:

 SHELL     
    1    4
    v    2
 TOTAL   6




    ROOT NO.    1           2           3           4           5           6

           -40.92196   -19.93607   -14.59370   -12.80544     6.26876     8.13530
  
  
  S  O   1   0.83210     0.00270    -0.38997    -0.00000    -0.39413    -0.01361
 PX  O   1   0.09223     0.62802     0.46730     0.22757    -0.28054     0.49822
 PY  O   1   0.12612    -0.45977     0.62389     0.34964    -0.34103    -0.38069
 PZ  O   1  -0.07162     0.01962    -0.35703     0.90882     0.20145     0.02170
  
  S  H   2   0.37091     0.44502     0.23846     0.00000     0.56858    -0.53313
  
  S  H   3   0.37482    -0.44245     0.23662     0.00000     0.53460     0.56742


 Reference determinate nber   1 is ALPHA 1 -   4
 SINGLE excitations FROM orbs   3 to   4 INTO orbs   5 to   6
 

 CI excitations=    5:        =  5
 The lowest    5 spin-adapted configurations of multiplicity=  1
     sym   eV   cm**-1 -dets- dipole oscilator X FRAG ....Excitations named from first reference determinate
                       tot  #  Debye  strength
 
   1      0.000      0.  1  1  2.4091 0.000000 0  0 (     )->       )
   2     11.144  89880.  1  1  0.2157 0.034143 1  1 (   4 )->   5   )
   3     12.120  97758.  1  1  0.7709 0.000044 1  1 (   4 )->   6   )
   4     13.682 110352.  1  1  0.6617 0.023715 1  1 (   3 )->   5   )
   5     14.732 118819.  1  1  0.1638 0.205838 1  1 (   3 )->   6   )

 Depression of ground-state after CI=          0. cm**-1 Energy=  -466.4302362 eV
 Dipole moment=  1.313724  1.752571 -1.003207 tot=  2.409107 Debyes


  CI trans.  energy frequency wavelength oscillator ---------polarization---------    dipole   ------components----- 
 st.  symm.    eV      cm-1       nm      strength       x          y         z       moment     x       y       z 

   2     11.1431003    89875.    111.27  0.034065   0.227569   0.349643   0.908824  0.324922  -0.168   0.271  -0.062
   3     12.1209744    97762.    102.29  0.000126   0.227579   0.349640   0.908823  0.805030   0.639   0.381  -0.307
   4     13.6816162   110350.     90.62  0.023939  -0.655907  -0.634785   0.408454  0.683964  -0.544  -0.323   0.260
   5     14.7318152   118820.     84.16  0.205599  -0.801401   0.597416  -0.029167  0.238417   0.183  -0.152   0.013
 
 Polarizability (au  ) xx=    1.51 xy=   -0.84 yy=    0.94 xz=    0.10 yz=    0.08 zz=    0.55
 Polarizability (A**3) xx=    0.22 xy=   -0.12 yy=    0.14 xz=    0.01 yz=    0.01 zz=    0.08
 ***********************************
 ***********************************
 CI Matrix
  1.0000000000  0.0000000000  0.0000000000  0.0000000000  0.0000000000 
  0.0000000000 -0.9997160352  0.0238295809  0.0000001261 -0.0000000127 
  0.0000000000 -0.0238295809 -0.9997160352 -0.0000000916  0.0000001207 
  0.0000000000 -0.0000001240  0.0000000963 -0.9998989092  0.0142186949 
  0.0000000000 -0.0000000081  0.0000001196  0.0142186949  0.9998989092 
 ***********************************
 ***********************************
 
 
 Major CI contributions to CI states
 
State    1  0.0000     CI coeff  CI percent
    Config       1   1.00000000  1.00000000
 Total coeff printed             1.00000000
  
State    2 11.1431     CI coeff  CI percent
    Config       2  -0.99971604  0.99943215
 Total coeff printed             0.99943215
  
State    3 12.1210     CI coeff  CI percent
    Config       3  -0.99971604  0.99943215
 Total coeff printed             0.99943215
  
State    4 13.6816     CI coeff  CI percent
    Config       4  -0.99989891  0.99979783
 Total coeff printed             0.99979783
  
State    5 14.7318     CI coeff  CI percent
    Config       5   0.99989891  0.99979783
 Total coeff printed             0.99979783
  

 -------------------------------------------------------------------------------
 INDO C.I.=(4,2) AllVEC CHARGE=0 RELSCF=0.000001




     1SCF WAS SPECIFIED, SO BFGS WAS NOT USED                 
     SCF FIELD WAS ACHIEVED                                   


                              INDO CALCULATION
                                                       MOPAC2016 (Version: 20.173L)
                                                       Thu Jun  1 14:01:01 2023




          FINAL HEAT OF FORMATION =      -8367.16245 KCAL/MOL =  -35008.20768 KJ/MOL


          TOTAL ENERGY            =       -369.93624 EV
          ELECTRONIC ENERGY       =       -466.43024 EV  POINT GROUP:     C2v 
          CORE-CORE REPULSION     =         96.49399 EV
          COSMO AREA              =         42.47 SQUARE ANGSTROMS
          COSMO VOLUME            =         25.17 CUBIC ANGSTROMS

          IONIZATION POTENTIAL    =         12.805437 EV
          HOMO LUMO ENERGIES (EV) =        -12.805  6.269
          NO. OF FILLED LEVELS    =          4
          MOLECULAR WEIGHT        =         18.0152

          MOLECULAR DIMENSIONS (Angstroms)

            Atom       Atom       Distance
            H     3    H     2     1.53396
            O     1    H     3     0.56820
            O     1    H     2     0.00000


          SCF CALCULATIONS        =          1
 
          WALL-CLOCK TIME         =          0.070 SECONDS
          COMPUTATION TIME        =          0.010 SECONDS




   ATOM   CHEMICAL          X               Y               Z
  NUMBER   SYMBOL      (ANGSTROMS)     (ANGSTROMS)     (ANGSTROMS)
 
     1       O         -1.04666946  *   0.46957503  *   0.02646940  *
     2       H         -0.11427355  *   0.43024497  *  -0.19187163  *
     3       H         -1.35456196  *   1.33213132  *  -0.22827752  *

                             CARTESIAN COORDINATES

   1    O       -1.046669457     0.469575029     0.026469396
   2    H       -0.114273548     0.430244974    -0.191871632
   3    H       -1.354561962     1.332131317    -0.228277518


           Empirical Formula: H2 O  =     3 atoms



      MOLECULAR POINT GROUP   :   C2v 


                EIGENVECTORS  


   Root No.       1         2         3         4         5         6

                 1 a1      1 b2      2 a1      1 b1      3 a1      2 b2  

               -40.922   -19.936   -14.594   -12.805     6.269     8.135
  
  S   O    1    0.8321    0.0027   -0.3900   -0.0000   -0.3941   -0.0136
  Px  O    1    0.0922    0.6280    0.4673    0.2276   -0.2805    0.4982
  Py  O    1    0.1261   -0.4598    0.6239    0.3496   -0.3410   -0.3807
  Pz  O    1   -0.0716    0.0196   -0.3570    0.9088    0.2014    0.0217
  S   H    2    0.3709    0.4450    0.2385    0.0000    0.5686   -0.5331
  S   H    3    0.3748   -0.4425    0.2366    0.0000    0.5346    0.5674


              NET ATOMIC CHARGES AND DIPOLE CONTRIBUTIONS

  ATOM NO.   TYPE          CHARGE      No. of ELECS.   s-Pop       p-Pop       
    1          O          -0.430546        6.4305     1.68895     4.74160
    2          H           0.215033        0.7850     0.78497
    3          H           0.215513        0.7845     0.78449
 DIPOLE           X         Y         Z       TOTAL
 POINT-CHG.     0.644     0.852    -0.489     1.175
 HYBRID         0.669     0.900    -0.514     1.234
 SUM            1.314     1.753    -1.003     2.409


          ATOMIC ORBITAL ELECTRON POPULATIONS

     Atom    s        px        py        pz   
    1  O   1.68895   1.34615   1.47755   1.91790
    2  H   0.78497
    3  H   0.78449

 **********************
 *                    *
 * JOB ENDED NORMALLY *
 *                    *
 **********************



 TOTAL JOB TIME:             0.14 SECONDS

 == MOPAC DONE ==


          MOPAC Job: "./h2oTraj/h2o_53.mop" ended normally on Jun  1, 2023, at 14:01.

rm: cannot remove ‘./h2oTraj/h2o_53.cim’: No such file or directory
rm: cannot remove ‘./h2oTraj/h2o_53.end’: No such file or directory
rm: cannot remove ‘./h2oTraj/h2o_53.log’: No such file or directory
rm: cannot remove ‘./h2oTraj/h2o_53.temp’: No such file or directory
rm: cannot remove ‘./h2oTraj/h2o_53.ple’: No such file or directory
rm: cannot remove ‘./h2oTraj/h2o_53.sts’: No such file or directory
