 *******************************************************************************
 ** Site#:    0         For non-commercial use only    Version 20.173L 64BITS **
 *******************************************************************************
 ** Cite this program as: MOPAC2016, Version: 20.173L, James J. P. Stewart,   **
 ** Stewart Computational Chemistry, web-site: HTTP://OpenMOPAC.net.          **
 *******************************************************************************
 **                                                                           **
 **                                MOPAC2016                                  **
 **                                                                           **
 *******************************************************************************

                              INDO CALCULATION RESULTS

 *******************************************************************************
 *  CALCULATION DONE:                                Thu Jun  1 14:00:56 2023  *
 *  INDO       - The INDO Hamiltonian to be used
 *
 *
 *
 *                 CHARGE ON SYSTEM = 0
 *
 *
 *
 *  C.I.=(N,M) - 2 DOUBLY FILLED LEVELS USED IN A C.I. INVOLVING 4 M.O.'S
 *  T=         - A TIME OF 172800.0 SECONDS REQUESTED
 *  DUMP=N     - RESTART FILE WRITTEN EVERY 7200.0 SECONDS REQUESTED
 *  RELSCF     - DEFAULT SCF CRITERION MULTIPLIED BY 0.0000
 *              (DEFAULT SCF CRITERION = 0.00010)
 *  ALLVEC     - PRINT ALL EIGENVECTORS
 **********
 *  WARNING: Specified print options may not behave as expected with INDO
 **********
 *******************************************************************************
INDO C.I.=(4,2) AllVEC CHARGE=0 RELSCF=0.000001


   ATOM   CHEMICAL          X               Y               Z
  NUMBER   SYMBOL      (ANGSTROMS)     (ANGSTROMS)     (ANGSTROMS)
 
     1       O         -1.05423227  *   0.46749730  *   0.01054604  *
     2       H         -0.06805056  *   0.41564940  *  -0.09277284  *
     3       H         -1.28074025  *   1.37970679  *  -0.07462463  *
 


          CARTESIAN COORDINATES 

    NO.       ATOM           X           Y           Z

     1         O         -1.0542      0.4675      0.0105
     2         H         -0.0681      0.4156     -0.0928
     3         H         -1.2807      1.3797     -0.0746

           Empirical Formula: H2 O  =     3 atoms



      MOLECULAR POINT GROUP   :   C2v 


      RHF CALCULATION, NO. OF DOUBLY OCCUPIED LEVELS = 4

 WARNING: INDO only performs single-point calculations
  SCF CRITERION =    0.1000E-09

 Summary of symmetry occupancy in each shell:

 SHELL     
    1    4
    v    2
 TOTAL   6




    ROOT NO.    1           2           3           4           5           6

           -40.64067   -19.77301   -14.63044   -12.80416     6.02100     7.97449
  
  
  S  O   1   0.83430     0.01759    -0.39088    -0.00000    -0.37960    -0.08217
 PX  O   1   0.09896     0.59812     0.53630     0.10966    -0.39751     0.41809
 PY  O   1   0.13801    -0.49844     0.65012     0.11936    -0.28959    -0.46016
 PZ  O   1  -0.02769    -0.00618    -0.13824     0.98678     0.07920     0.00920
  
  S  H   2   0.35779     0.45121     0.24890     0.00000     0.64532    -0.43590
  
  S  H   3   0.38252    -0.43574     0.23640     0.00000     0.43739     0.64545


 Reference determinate nber   1 is ALPHA 1 -   4
 SINGLE excitations FROM orbs   3 to   4 INTO orbs   5 to   6
 

 CI excitations=    5:        =  5
 The lowest    5 spin-adapted configurations of multiplicity=  1
     sym   eV   cm**-1 -dets- dipole oscilator X FRAG ....Excitations named from first reference determinate
                       tot  #  Debye  strength
 
   1      0.000      0.  1  1  2.4263 0.000000 0  0 (     )->       )
   2     10.871  87681.  1  1  1.0484 0.030897 1  1 (   4 )->   5   )
   3     12.006  96837.  1  1  1.1972 0.001599 1  1 (   4 )->   6   )
   4     13.525 109085.  1  1  1.1860 0.038186 1  1 (   3 )->   5   )
   5     14.665 118284.  1  1  0.9858 0.204479 1  1 (   3 )->   6   )

 Depression of ground-state after CI=          0. cm**-1 Energy=  -465.0988137 eV
 Dipole moment=  1.525323  1.845544 -0.392741 tot=  2.426291 Debyes


  CI trans.  energy frequency wavelength oscillator ---------polarization---------    dipole   ------components----- 
 st.  symm.    eV      cm-1       nm      strength       x          y         z       moment     x       y       z 

   2     10.8552231    87554.    114.22  0.028906   0.109657   0.119361   0.986777  1.590017  -1.126   1.122  -0.011
   3     12.0220599    96965.    103.13  0.003756   0.109657   0.119360   0.986777  1.649355   1.590  -0.420  -0.126
   4     13.5177233   109028.     91.72  0.045488  -0.972914  -0.190369   0.131143  1.506674  -1.444   0.415   0.110
   5     14.6723341   118341.     84.50  0.196630  -0.727386   0.686225  -0.002175  1.356318   1.021  -0.893  -0.005
 
 Polarizability (au  ) xx=    1.60 xy=   -0.90 yy=    0.98 xz=   -0.00 yz=    0.05 zz=    0.60
 Polarizability (A**3) xx=    0.24 xy=   -0.13 yy=    0.15 xz=   -0.00 yz=    0.01 zz=    0.09
 ***********************************
 ***********************************
 CI Matrix
  1.0000000000  0.0000000000  0.0000000000  0.0000000000  0.0000000000 
  0.0000000000 -0.9931833845  0.1165622781  0.0000000708 -0.0000000051 
  0.0000000000 -0.1165622781 -0.9931833845  0.0000000900  0.0000000932 
  0.0000000000 -0.0000000801 -0.0000000737 -0.9969488132  0.0780580807 
  0.0000000000  0.0000000120  0.0000000992  0.0780580807  0.9969488132 
 ***********************************
 ***********************************
 
 
 Major CI contributions to CI states
 
State    1  0.0000     CI coeff  CI percent
    Config       1   1.00000000  1.00000000
 Total coeff printed             1.00000000
  
State    2 10.8552     CI coeff  CI percent
    Config       2  -0.99318338  0.98641324
    Config       3   0.11656228  0.01358676
 Total coeff printed             1.00000000
  
State    3 12.0221     CI coeff  CI percent
    Config       2  -0.11656228  0.01358676
    Config       3  -0.99318338  0.98641324
 Total coeff printed             1.00000000
  
State    4 13.5177     CI coeff  CI percent
    Config       4  -0.99694881  0.99390694
    Config       5   0.07805808  0.00609306
 Total coeff printed             1.00000000
  
State    5 14.6723     CI coeff  CI percent
    Config       4   0.07805808  0.00609306
    Config       5   0.99694881  0.99390694
 Total coeff printed             1.00000000
  

 -------------------------------------------------------------------------------
 INDO C.I.=(4,2) AllVEC CHARGE=0 RELSCF=0.000001




     1SCF WAS SPECIFIED, SO BFGS WAS NOT USED                 
     SCF FIELD WAS ACHIEVED                                   


                              INDO CALCULATION
                                                       MOPAC2016 (Version: 20.173L)
                                                       Thu Jun  1 14:00:56 2023




          FINAL HEAT OF FORMATION =      -8349.47281 KCAL/MOL =  -34934.19423 KJ/MOL


          TOTAL ENERGY            =       -369.16915 EV
          ELECTRONIC ENERGY       =       -465.09881 EV  POINT GROUP:     C2v 
          CORE-CORE REPULSION     =         95.92967 EV
          COSMO AREA              =         42.63 SQUARE ANGSTROMS
          COSMO VOLUME            =         25.30 CUBIC ANGSTROMS

          IONIZATION POTENTIAL    =         12.804163 EV
          HOMO LUMO ENERGIES (EV) =        -12.804  6.021
          NO. OF FILLED LEVELS    =          4
          MOLECULAR WEIGHT        =         18.0152

          MOLECULAR DIMENSIONS (Angstroms)

            Atom       Atom       Distance
            H     3    H     2     1.54931
            O     1    H     3     0.58075
            H     2    H     3     0.00000


          SCF CALCULATIONS        =          1
 
          WALL-CLOCK TIME         =          0.012 SECONDS
          COMPUTATION TIME        =          0.010 SECONDS




   ATOM   CHEMICAL          X               Y               Z
  NUMBER   SYMBOL      (ANGSTROMS)     (ANGSTROMS)     (ANGSTROMS)
 
     1       O         -1.05423227  *   0.46749730  *   0.01054604  *
     2       H         -0.06805056  *   0.41564940  *  -0.09277284  *
     3       H         -1.28074025  *   1.37970679  *  -0.07462463  *

                             CARTESIAN COORDINATES

   1    O       -1.054232273     0.467497295     0.010546040
   2    H       -0.068050558     0.415649402    -0.092772840
   3    H       -1.280740246     1.379706790    -0.074624628


           Empirical Formula: H2 O  =     3 atoms



      MOLECULAR POINT GROUP   :   C2v 


                EIGENVECTORS  


   Root No.       1         2         3         4         5         6

                 1 a1      1 b2      2 a1      1 b1      3 a1      2 b2  

               -40.641   -19.773   -14.630   -12.804     6.021     7.974
  
  S   O    1    0.8343    0.0176   -0.3909   -0.0000   -0.3796   -0.0822
  Px  O    1    0.0990    0.5981    0.5363    0.1097   -0.3975    0.4181
  Py  O    1    0.1380   -0.4984    0.6501    0.1194   -0.2896   -0.4602
  Pz  O    1   -0.0277   -0.0062   -0.1382    0.9868    0.0792    0.0092
  S   H    2    0.3578    0.4512    0.2489    0.0000    0.6453   -0.4359
  S   H    3    0.3825   -0.4357    0.2364    0.0000    0.4374    0.6455


              NET ATOMIC CHARGES AND DIPOLE CONTRIBUTIONS

  ATOM NO.   TYPE          CHARGE      No. of ELECS.   s-Pop       p-Pop       
    1          O          -0.428733        6.4287     1.69830     4.73043
    2          H           0.212899        0.7871     0.78710
    3          H           0.215834        0.7842     0.78417
 DIPOLE           X         Y         Z       TOTAL
 POINT-CHG.     0.774     0.893    -0.194     1.197
 HYBRID         0.752     0.953    -0.199     1.230
 SUM            1.525     1.846    -0.393     2.426


          ATOMIC ORBITAL ELECTRON POPULATIONS

     Atom    s        px        py        pz   
    1  O   1.69830   1.33437   1.40878   1.98728
    2  H   0.78710
    3  H   0.78417

 **********************
 *                    *
 * JOB ENDED NORMALLY *
 *                    *
 **********************



 TOTAL JOB TIME:             0.02 SECONDS

 == MOPAC DONE ==


          MOPAC Job: "./h2oTraj/h2o_19.mop" ended normally on Jun  1, 2023, at 14:00.

rm: cannot remove ‘./h2oTraj/h2o_19.cim’: No such file or directory
rm: cannot remove ‘./h2oTraj/h2o_19.end’: No such file or directory
rm: cannot remove ‘./h2oTraj/h2o_19.log’: No such file or directory
rm: cannot remove ‘./h2oTraj/h2o_19.temp’: No such file or directory
rm: cannot remove ‘./h2oTraj/h2o_19.ple’: No such file or directory
rm: cannot remove ‘./h2oTraj/h2o_19.sts’: No such file or directory
