 *******************************************************************************
 ** Site#:    0         For non-commercial use only    Version 20.173L 64BITS **
 *******************************************************************************
 ** Cite this program as: MOPAC2016, Version: 20.173L, James J. P. Stewart,   **
 ** Stewart Computational Chemistry, web-site: HTTP://OpenMOPAC.net.          **
 *******************************************************************************
 **                                                                           **
 **                                MOPAC2016                                  **
 **                                                                           **
 *******************************************************************************

                              INDO CALCULATION RESULTS

 *******************************************************************************
 *  CALCULATION DONE:                                Thu Jun  1 14:00:53 2023  *
 *  INDO       - The INDO Hamiltonian to be used
 *
 *
 *
 *                 CHARGE ON SYSTEM = 0
 *
 *
 *
 *  C.I.=(N,M) - 2 DOUBLY FILLED LEVELS USED IN A C.I. INVOLVING 4 M.O.'S
 *  T=         - A TIME OF 172800.0 SECONDS REQUESTED
 *  DUMP=N     - RESTART FILE WRITTEN EVERY 7200.0 SECONDS REQUESTED
 *  RELSCF     - DEFAULT SCF CRITERION MULTIPLIED BY 0.0000
 *              (DEFAULT SCF CRITERION = 0.00010)
 *  ALLVEC     - PRINT ALL EIGENVECTORS
 **********
 *  WARNING: Specified print options may not behave as expected with INDO
 **********
 *******************************************************************************
INDO C.I.=(4,2) AllVEC CHARGE=0 RELSCF=0.000001


   ATOM   CHEMICAL          X               Y               Z
  NUMBER   SYMBOL      (ANGSTROMS)     (ANGSTROMS)     (ANGSTROMS)
 
     1       O         -1.04855136  *   0.46309053  *   0.00284383  *
     2       H         -0.08673366  *   0.46547629  *  -0.00497654  *
     3       H         -1.35223039  *   1.39982858  *  -0.04016357  *
 


          CARTESIAN COORDINATES 

    NO.       ATOM           X           Y           Z

     1         O         -1.0486      0.4631      0.0028
     2         H         -0.0867      0.4655     -0.0050
     3         H         -1.3522      1.3998     -0.0402

           Empirical Formula: H2 O  =     3 atoms



      MOLECULAR POINT GROUP   :   C2v 


      RHF CALCULATION, NO. OF DOUBLY OCCUPIED LEVELS = 4

 WARNING: INDO only performs single-point calculations
  SCF CRITERION =    0.1000E-09

 Summary of symmetry occupancy in each shell:

 SHELL     
    1    4
    v    2
 TOTAL   6




    ROOT NO.    1           2           3           4           5           6

           -40.45696   -19.84714   -14.55021   -12.78998     5.93550     7.91328
  
  
  S  O   1   0.83682    -0.00871    -0.38538     0.00000    -0.38681    -0.03893
 PX  O   1   0.10351     0.62965     0.50282     0.00800    -0.23761    -0.53242
 PY  O   1   0.13302    -0.45419     0.69309     0.04845    -0.42615     0.33420
 PZ  O   1  -0.00728     0.01699    -0.03765     0.99879     0.02258    -0.01195
  
  S  H   2   0.37429     0.44173     0.23865     0.00000     0.50199     0.59652
  
  S  H   3   0.36218    -0.44918     0.24476    -0.00000     0.59984    -0.49733


 Reference determinate nber   1 is ALPHA 1 -   4
 SINGLE excitations FROM orbs   3 to   4 INTO orbs   5 to   6
 

 CI excitations=    5:        =  5
 The lowest    5 spin-adapted configurations of multiplicity=  1
     sym   eV   cm**-1 -dets- dipole oscilator X FRAG ....Excitations named from first reference determinate
                       tot  #  Debye  strength
 
   1      0.000      0.  1  1  2.4055 0.000000 0  0 (     )->       )
   2     10.813  87216.  1  1  0.5178 0.031912 1  1 (   4 )->   5   )
   3     11.915  96099.  1  1  0.8742 0.000356 1  1 (   4 )->   6   )
   4     13.384 107951.  1  1  0.7999 0.027933 1  1 (   3 )->   5   )
   5     14.513 117056.  1  1  0.4793 0.211750 1  1 (   3 )->   6   )

 Depression of ground-state after CI=          0. cm**-1 Energy=  -464.5184438 eV
 Dipole moment=  1.410162  1.946001 -0.105694 tot=  2.405545 Debyes


  CI trans.  energy frequency wavelength oscillator ---------polarization---------    dipole   ------components----- 
 st.  symm.    eV      cm-1       nm      strength       x          y         z       moment     x       y       z 

   2     10.8094202    87184.    114.70  0.031406   0.008001   0.048451   0.998794  0.825860   0.731  -0.385   0.013
   3     11.9186925    96131.    104.02  0.000901   0.008001   0.048449   0.998794  1.067540  -0.196   1.048  -0.049
   4     13.3824801   107937.     92.65  0.029723  -0.239451  -0.969673   0.048956  0.934464   0.191  -0.914   0.043
   5     14.5147585   117070.     85.42  0.209829   0.825996  -0.563296   0.020708  0.681083  -0.555   0.395  -0.015
 
 Polarizability (au  ) xx=    1.53 xy=   -0.94 yy=    1.05 xz=    0.04 yz=   -0.01 zz=    0.61
 Polarizability (A**3) xx=    0.23 xy=   -0.14 yy=    0.16 xz=    0.01 yz=   -0.00 zz=    0.09
 ***********************************
 ***********************************
 CI Matrix
  1.0000000000  0.0000000000  0.0000000000  0.0000000000  0.0000000000 
  0.0000000000 -0.9982207598  0.0596264593 -0.0000000813  0.0000000166 
  0.0000000000 -0.0596264593 -0.9982207598  0.0000001288 -0.0000000588 
  0.0000000000  0.0000000739 -0.0000001357 -0.9992614064  0.0384270964 
  0.0000000000  0.0000000102 -0.0000000545  0.0384270964  0.9992614064 
 ***********************************
 ***********************************
 
 
 Major CI contributions to CI states
 
State    1  0.0000     CI coeff  CI percent
    Config       1   1.00000000  1.00000000
 Total coeff printed             1.00000000
  
State    2 10.8094     CI coeff  CI percent
    Config       2  -0.99822076  0.99644469
    Config       3   0.05962646  0.00355531
 Total coeff printed             1.00000000
  
State    3 11.9187     CI coeff  CI percent
    Config       2  -0.05962646  0.00355531
    Config       3  -0.99822076  0.99644469
 Total coeff printed             1.00000000
  
State    4 13.3825     CI coeff  CI percent
    Config       4  -0.99926141  0.99852336
 Total coeff printed             0.99852336
  
State    5 14.5148     CI coeff  CI percent
    Config       5   0.99926141  0.99852336
 Total coeff printed             0.99852336
  

 -------------------------------------------------------------------------------
 INDO C.I.=(4,2) AllVEC CHARGE=0 RELSCF=0.000001




     1SCF WAS SPECIFIED, SO BFGS WAS NOT USED                 
     SCF FIELD WAS ACHIEVED                                   


                              INDO CALCULATION
                                                       MOPAC2016 (Version: 20.173L)
                                                       Thu Jun  1 14:00:54 2023




          FINAL HEAT OF FORMATION =      -8342.26960 KCAL/MOL =  -34904.05599 KJ/MOL


          TOTAL ENERGY            =       -368.85679 EV
          ELECTRONIC ENERGY       =       -464.51844 EV  POINT GROUP:     C2v 
          CORE-CORE REPULSION     =         95.66166 EV
          COSMO AREA              =         42.74 SQUARE ANGSTROMS
          COSMO VOLUME            =         25.40 CUBIC ANGSTROMS

          IONIZATION POTENTIAL    =         12.789979 EV
          HOMO LUMO ENERGIES (EV) =        -12.790  5.936
          NO. OF FILLED LEVELS    =          4
          MOLECULAR WEIGHT        =         18.0152

          MOLECULAR DIMENSIONS (Angstroms)

            Atom       Atom       Distance
            H     3    H     2     1.57345
            H     2    O     1     0.57376
            O     1    H     2     0.00000


          SCF CALCULATIONS        =          1
 
          WALL-CLOCK TIME         =          0.102 SECONDS
          COMPUTATION TIME        =          0.013 SECONDS




   ATOM   CHEMICAL          X               Y               Z
  NUMBER   SYMBOL      (ANGSTROMS)     (ANGSTROMS)     (ANGSTROMS)
 
     1       O         -1.04855136  *   0.46309053  *   0.00284383  *
     2       H         -0.08673366  *   0.46547629  *  -0.00497654  *
     3       H         -1.35223039  *   1.39982858  *  -0.04016357  *

                             CARTESIAN COORDINATES

   1    O       -1.048551359     0.463090528     0.002843827
   2    H       -0.086733660     0.465476290    -0.004976541
   3    H       -1.352230386     1.399828578    -0.040163572


           Empirical Formula: H2 O  =     3 atoms



      MOLECULAR POINT GROUP   :   C2v 


                EIGENVECTORS  


   Root No.       1         2         3         4         5         6

                 1 a1      1 b2      2 a1      1 b1      3 a1      2 b2  

               -40.457   -19.847   -14.550   -12.790     5.936     7.913
  
  S   O    1    0.8368   -0.0087   -0.3854    0.0000   -0.3868   -0.0389
  Px  O    1    0.1035    0.6297    0.5028    0.0080   -0.2376   -0.5324
  Py  O    1    0.1330   -0.4542    0.6931    0.0485   -0.4262    0.3342
  Pz  O    1   -0.0073    0.0170   -0.0376    0.9988    0.0226   -0.0119
  S   H    2    0.3743    0.4417    0.2386    0.0000    0.5020    0.5965
  S   H    3    0.3622   -0.4492    0.2448   -0.0000    0.5998   -0.4973


              NET ATOMIC CHARGES AND DIPOLE CONTRIBUTIONS

  ATOM NO.   TYPE          CHARGE      No. of ELECS.   s-Pop       p-Pop       
    1          O          -0.429965        6.4300     1.69772     4.73225
    2          H           0.215654        0.7843     0.78435
    3          H           0.214311        0.7857     0.78569
 DIPOLE           X         Y         Z       TOTAL
 POINT-CHG.     0.684     0.967    -0.052     1.185
 HYBRID         0.727     0.979    -0.053     1.221
 SUM            1.410     1.946    -0.106     2.406


          ATOMIC ORBITAL ELECTRON POPULATIONS

     Atom    s        px        py        pz   
    1  O   1.69772   1.32014   1.41341   1.99870
    2  H   0.78435
    3  H   0.78569

 **********************
 *                    *
 * JOB ENDED NORMALLY *
 *                    *
 **********************



 TOTAL JOB TIME:             0.18 SECONDS

 == MOPAC DONE ==


          MOPAC Job: "./h2oTraj/h2o_1.mop" ended normally on Jun  1, 2023, at 14:00.

rm: cannot remove ‘./h2oTraj/h2o_1.cim’: No such file or directory
rm: cannot remove ‘./h2oTraj/h2o_1.end’: No such file or directory
rm: cannot remove ‘./h2oTraj/h2o_1.log’: No such file or directory
rm: cannot remove ‘./h2oTraj/h2o_1.temp’: No such file or directory
rm: cannot remove ‘./h2oTraj/h2o_1.ple’: No such file or directory
rm: cannot remove ‘./h2oTraj/h2o_1.sts’: No such file or directory
