 *******************************************************************************
 ** Site#:    0         For non-commercial use only    Version 20.173L 64BITS **
 *******************************************************************************
 ** Cite this program as: MOPAC2016, Version: 20.173L, James J. P. Stewart,   **
 ** Stewart Computational Chemistry, web-site: HTTP://OpenMOPAC.net.          **
 *******************************************************************************
 **                                                                           **
 **                                MOPAC2016                                  **
 **                                                                           **
 *******************************************************************************

                              INDO CALCULATION RESULTS

 *******************************************************************************
 *  CALCULATION DONE:                                Thu Jun  1 14:00:56 2023  *
 *  INDO       - The INDO Hamiltonian to be used
 *
 *
 *
 *                 CHARGE ON SYSTEM = 0
 *
 *
 *
 *  C.I.=(N,M) - 2 DOUBLY FILLED LEVELS USED IN A C.I. INVOLVING 4 M.O.'S
 *  T=         - A TIME OF 172800.0 SECONDS REQUESTED
 *  DUMP=N     - RESTART FILE WRITTEN EVERY 7200.0 SECONDS REQUESTED
 *  RELSCF     - DEFAULT SCF CRITERION MULTIPLIED BY 0.0000
 *              (DEFAULT SCF CRITERION = 0.00010)
 *  ALLVEC     - PRINT ALL EIGENVECTORS
 **********
 *  WARNING: Specified print options may not behave as expected with INDO
 **********
 *******************************************************************************
INDO C.I.=(4,2) AllVEC CHARGE=0 RELSCF=0.000001


   ATOM   CHEMICAL          X               Y               Z
  NUMBER   SYMBOL      (ANGSTROMS)     (ANGSTROMS)     (ANGSTROMS)
 
     1       O         -1.05267943  *   0.46816224  *   0.01215627  *
     2       H         -0.08227954  *   0.41229275  *  -0.10232470  *
     3       H         -1.29115959  *   1.37250882  *  -0.09063193  *
 


          CARTESIAN COORDINATES 

    NO.       ATOM           X           Y           Z

     1         O         -1.0527      0.4682      0.0122
     2         H         -0.0823      0.4123     -0.1023
     3         H         -1.2912      1.3725     -0.0906

           Empirical Formula: H2 O  =     3 atoms



      MOLECULAR POINT GROUP   :   C2v 


      RHF CALCULATION, NO. OF DOUBLY OCCUPIED LEVELS = 4

 WARNING: INDO only performs single-point calculations
  SCF CRITERION =    0.1000E-09

 Summary of symmetry occupancy in each shell:

 SHELL     
    1    4
    v    2
 TOTAL   6




    ROOT NO.    1           2           3           4           5           6

           -40.80351   -19.89973   -14.58655   -12.80199     6.14630     8.10506
  
  
  S  O   1   0.83323     0.01328    -0.38898    -0.00000    -0.38758    -0.06342
 PX  O   1   0.09947     0.60098     0.53209     0.12412    -0.37137     0.43873
 PY  O   1   0.13570    -0.49426     0.65179     0.14431    -0.30661    -0.44456
 PZ  O   1  -0.03252    -0.00333    -0.16309     0.98172     0.09203     0.00988
  
  S  H   2   0.36209     0.45014     0.24344     0.00000     0.62553    -0.46445
  
  S  H   3   0.38112    -0.43785     0.23428     0.00000     0.46701     0.62454


 Reference determinate nber   1 is ALPHA 1 -   4
 SINGLE excitations FROM orbs   3 to   4 INTO orbs   5 to   6
 

 CI excitations=    5:        =  5
 The lowest    5 spin-adapted configurations of multiplicity=  1
     sym   eV   cm**-1 -dets- dipole oscilator X FRAG ....Excitations named from first reference determinate
                       tot  #  Debye  strength
 
   1      0.000      0.  1  1  2.4097 0.000000 0  0 (     )->       )
   2     11.010  88804.  1  1  0.8107 0.032622 1  1 (   4 )->   5   )
   3     12.107  97650.  1  1  1.0451 0.000960 1  1 (   4 )->   6   )
   4     13.572 109464.  1  1  1.0014 0.030048 1  1 (   3 )->   5   )
   5     14.711 118656.  1  1  0.7572 0.203087 1  1 (   3 )->   6   )

 Depression of ground-state after CI=          0. cm**-1 Energy=  -465.9122493 eV
 Dipole moment=  1.498643  1.830391 -0.458554 tot=  2.409675 Debyes


  CI trans.  energy frequency wavelength oscillator ---------polarization---------    dipole   ------components----- 
 st.  symm.    eV      cm-1       nm      strength       x          y         z       moment     x       y       z 

   2     10.9999150    88721.    112.71  0.031277   0.124124   0.144314   0.981716  1.280302  -0.893   0.917  -0.022
   3     12.1173054    97733.    102.32  0.002409   0.124127   0.144312   0.981716  1.406734   1.384  -0.209  -0.144
   4     13.5675438   109430.     91.38  0.034380  -0.944166  -0.287126   0.161585  1.243362  -1.220   0.207   0.124
   5     14.7156556   118690.     84.25  0.198436  -0.744791   0.667286  -0.003924  1.057331   0.802  -0.689  -0.000
 
 Polarizability (au  ) xx=    1.51 xy=   -0.89 yy=    0.95 xz=    0.02 yz=    0.06 zz=    0.60
 Polarizability (A**3) xx=    0.22 xy=   -0.13 yy=    0.14 xz=    0.00 yz=    0.01 zz=    0.09
 ***********************************
 ***********************************
 CI Matrix
  1.0000000000  0.0000000000  0.0000000000  0.0000000000  0.0000000000 
  0.0000000000 -0.9953651464  0.0961676940  0.0000001585 -0.0000000192 
  0.0000000000 -0.0961676940 -0.9953651464 -0.0000000179  0.0000001479 
  0.0000000000 -0.0000001560  0.0000000420 -0.9981779006  0.0603396943 
  0.0000000000  0.0000000045  0.0000001467  0.0603396943  0.9981779006 
 ***********************************
 ***********************************
 
 
 Major CI contributions to CI states
 
State    1  0.0000     CI coeff  CI percent
    Config       1   1.00000000  1.00000000
 Total coeff printed             1.00000000
  
State    2 10.9999     CI coeff  CI percent
    Config       2  -0.99536515  0.99075177
    Config       3   0.09616769  0.00924823
 Total coeff printed             1.00000000
  
State    3 12.1173     CI coeff  CI percent
    Config       2  -0.09616769  0.00924823
    Config       3  -0.99536515  0.99075177
 Total coeff printed             1.00000000
  
State    4 13.5675     CI coeff  CI percent
    Config       4  -0.99817790  0.99635912
    Config       5   0.06033969  0.00364088
 Total coeff printed             1.00000000
  
State    5 14.7157     CI coeff  CI percent
    Config       4   0.06033969  0.00364088
    Config       5   0.99817790  0.99635912
 Total coeff printed             1.00000000
  

 -------------------------------------------------------------------------------
 INDO C.I.=(4,2) AllVEC CHARGE=0 RELSCF=0.000001




     1SCF WAS SPECIFIED, SO BFGS WAS NOT USED                 
     SCF FIELD WAS ACHIEVED                                   


                              INDO CALCULATION
                                                       MOPAC2016 (Version: 20.173L)
                                                       Thu Jun  1 14:00:56 2023




          FINAL HEAT OF FORMATION =      -8360.35556 KCAL/MOL =  -34979.72768 KJ/MOL


          TOTAL ENERGY            =       -369.64107 EV
          ELECTRONIC ENERGY       =       -465.91225 EV  POINT GROUP:     C2v 
          CORE-CORE REPULSION     =         96.27118 EV
          COSMO AREA              =         42.50 SQUARE ANGSTROMS
          COSMO VOLUME            =         25.20 CUBIC ANGSTROMS

          IONIZATION POTENTIAL    =         12.801993 EV
          HOMO LUMO ENERGIES (EV) =        -12.802  6.146
          NO. OF FILLED LEVELS    =          4
          MOLECULAR WEIGHT        =         18.0152

          MOLECULAR DIMENSIONS (Angstroms)

            Atom       Atom       Distance
            H     3    H     2     1.54387
            O     1    H     3     0.57022
            H     2    O     1     0.00000


          SCF CALCULATIONS        =          1
 
          WALL-CLOCK TIME         =          0.016 SECONDS
          COMPUTATION TIME        =          0.010 SECONDS




   ATOM   CHEMICAL          X               Y               Z
  NUMBER   SYMBOL      (ANGSTROMS)     (ANGSTROMS)     (ANGSTROMS)
 
     1       O         -1.05267943  *   0.46816224  *   0.01215627  *
     2       H         -0.08227954  *   0.41229275  *  -0.10232470  *
     3       H         -1.29115959  *   1.37250882  *  -0.09063193  *

                             CARTESIAN COORDINATES

   1    O       -1.052679429     0.468162236     0.012156268
   2    H       -0.082279541     0.412292751    -0.102324701
   3    H       -1.291159590     1.372508819    -0.090631928


           Empirical Formula: H2 O  =     3 atoms



      MOLECULAR POINT GROUP   :   C2v 


                EIGENVECTORS  


   Root No.       1         2         3         4         5         6

                 1 a1      1 b2      2 a1      1 b1      3 a1      2 b2  

               -40.804   -19.900   -14.587   -12.802     6.146     8.105
  
  S   O    1    0.8332    0.0133   -0.3890   -0.0000   -0.3876   -0.0634
  Px  O    1    0.0995    0.6010    0.5321    0.1241   -0.3714    0.4387
  Py  O    1    0.1357   -0.4943    0.6518    0.1443   -0.3066   -0.4446
  Pz  O    1   -0.0325   -0.0033   -0.1631    0.9817    0.0920    0.0099
  S   H    2    0.3621    0.4501    0.2434    0.0000    0.6255   -0.4645
  S   H    3    0.3811   -0.4379    0.2343    0.0000    0.4670    0.6245


              NET ATOMIC CHARGES AND DIPOLE CONTRIBUTIONS

  ATOM NO.   TYPE          CHARGE      No. of ELECS.   s-Pop       p-Pop       
    1          O          -0.430302        6.4303     1.69152     4.73879
    2          H           0.214011        0.7860     0.78599
    3          H           0.216292        0.7837     0.78371
 DIPOLE           X         Y         Z       TOTAL
 POINT-CHG.     0.750     0.882    -0.224     1.179
 HYBRID         0.749     0.948    -0.234     1.231
 SUM            1.499     1.830    -0.459     2.410


          ATOMIC ORBITAL ELECTRON POPULATIONS

     Atom    s        px        py        pz   
    1  O   1.69152   1.33920   1.41672   1.98287
    2  H   0.78599
    3  H   0.78371

 **********************
 *                    *
 * JOB ENDED NORMALLY *
 *                    *
 **********************



 TOTAL JOB TIME:             0.04 SECONDS

 == MOPAC DONE ==


          MOPAC Job: "./h2oTraj/h2o_20.mop" ended normally on Jun  1, 2023, at 14:00.

rm: cannot remove ‘./h2oTraj/h2o_20.cim’: No such file or directory
rm: cannot remove ‘./h2oTraj/h2o_20.end’: No such file or directory
rm: cannot remove ‘./h2oTraj/h2o_20.log’: No such file or directory
rm: cannot remove ‘./h2oTraj/h2o_20.temp’: No such file or directory
rm: cannot remove ‘./h2oTraj/h2o_20.ple’: No such file or directory
rm: cannot remove ‘./h2oTraj/h2o_20.sts’: No such file or directory
