 *******************************************************************************
 ** Site#:    0         For non-commercial use only    Version 20.173L 64BITS **
 *******************************************************************************
 ** Cite this program as: MOPAC2016, Version: 20.173L, James J. P. Stewart,   **
 ** Stewart Computational Chemistry, web-site: HTTP://OpenMOPAC.net.          **
 *******************************************************************************
 **                                                                           **
 **                                MOPAC2016                                  **
 **                                                                           **
 *******************************************************************************

                              INDO CALCULATION RESULTS

 *******************************************************************************
 *  CALCULATION DONE:                                Thu Jun  1 14:00:57 2023  *
 *  INDO       - The INDO Hamiltonian to be used
 *
 *
 *
 *                 CHARGE ON SYSTEM = 0
 *
 *
 *
 *  C.I.=(N,M) - 2 DOUBLY FILLED LEVELS USED IN A C.I. INVOLVING 4 M.O.'S
 *  T=         - A TIME OF 172800.0 SECONDS REQUESTED
 *  DUMP=N     - RESTART FILE WRITTEN EVERY 7200.0 SECONDS REQUESTED
 *  RELSCF     - DEFAULT SCF CRITERION MULTIPLIED BY 0.0000
 *              (DEFAULT SCF CRITERION = 0.00010)
 *  ALLVEC     - PRINT ALL EIGENVECTORS
 **********
 *  WARNING: Specified print options may not behave as expected with INDO
 **********
 *******************************************************************************
INDO C.I.=(4,2) AllVEC CHARGE=0 RELSCF=0.000001


   ATOM   CHEMICAL          X               Y               Z
  NUMBER   SYMBOL      (ANGSTROMS)     (ANGSTROMS)     (ANGSTROMS)
 
     1       O         -1.05203099  *   0.46538549  *   0.01301468  *
     2       H         -0.09801086  *   0.45109289  *  -0.11810601  *
     3       H         -1.28572103  *   1.37778407  *  -0.08847613  *
 


          CARTESIAN COORDINATES 

    NO.       ATOM           X           Y           Z

     1         O         -1.0520      0.4654      0.0130
     2         H         -0.0980      0.4511     -0.1181
     3         H         -1.2857      1.3778     -0.0885

           Empirical Formula: H2 O  =     3 atoms



      MOLECULAR POINT GROUP   :   C2v 


      RHF CALCULATION, NO. OF DOUBLY OCCUPIED LEVELS = 4

 WARNING: INDO only performs single-point calculations
  SCF CRITERION =    0.1000E-09

 Summary of symmetry occupancy in each shell:

 SHELL     
    1    4
    v    2
 TOTAL   6




    ROOT NO.    1           2           3           4           5           6

           -41.00113   -19.72768   -14.74013   -12.82401     6.35511     8.00364
  
  
  S  O   1   0.82987     0.00539    -0.39921     0.00000    -0.38857    -0.03055
 PX  O   1   0.10398     0.61270     0.51457     0.13686    -0.33480     0.46711
 PY  O   1   0.13832    -0.48544     0.65599     0.14407    -0.35289    -0.41184
 PZ  O   1  -0.03485    -0.01420    -0.16829     0.98006     0.09863    -0.00469
  
  S  H   2   0.37034     0.44341     0.24400    -0.00000     0.58669    -0.51234
  
  S  H   3   0.37816    -0.43830     0.24016    -0.00000     0.50839     0.59055


 Reference determinate nber   1 is ALPHA 1 -   4
 SINGLE excitations FROM orbs   3 to   4 INTO orbs   5 to   6
 

 CI excitations=    5:        =  5
 The lowest    5 spin-adapted configurations of multiplicity=  1
     sym   eV   cm**-1 -dets- dipole oscilator X FRAG ....Excitations named from first reference determinate
                       tot  #  Debye  strength
 
   1      0.000      0.  1  1  2.4521 0.000000 0  0 (     )->       )
   2     11.206  90383.  1  1  0.4062 0.033371 1  1 (   4 )->   5   )
   3     12.028  97009.  1  1  0.8092 0.000221 1  1 (   4 )->   6   )
   4     13.917 112246.  1  1  0.7358 0.031444 1  1 (   3 )->   5   )
   5     14.790 119291.  1  1  0.3682 0.209172 1  1 (   3 )->   6   )

 Depression of ground-state after CI=          0. cm**-1 Energy=  -466.4329282 eV
 Dipole moment=  1.484206  1.890608 -0.485180 tot=  2.452074 Debyes


  CI trans.  energy frequency wavelength oscillator ---------polarization---------    dipole   ------components----- 
 st.  symm.    eV      cm-1       nm      strength       x          y         z       moment     x       y       z 

   2     11.2029838    90358.    110.67  0.032918   0.136858   0.144070   0.980058  0.707860  -0.462   0.536  -0.014
   3     12.0306501    97034.    103.06  0.000698   0.136858   0.144070   0.980058  0.981290   0.958   0.143  -0.155
   4     13.9154106   112236.     89.10  0.032853  -0.810971  -0.551858   0.194370  0.849998  -0.829  -0.132   0.135
   5     14.7914844   119302.     83.82  0.207690  -0.765414   0.643421   0.012301  0.563758   0.416  -0.380  -0.002
 
 Polarizability (au  ) xx=    1.49 xy=   -0.86 yy=    1.00 xz=    0.00 yz=    0.06 zz=    0.58
 Polarizability (A**3) xx=    0.22 xy=   -0.13 yy=    0.15 xz=    0.00 yz=    0.01 zz=    0.09
 ***********************************
 ***********************************
 CI Matrix
  1.0000000000  0.0000000000  0.0000000000  0.0000000000  0.0000000000 
  0.0000000000 -0.9981280421  0.0611589048 -0.0000000000  0.0000000000 
  0.0000000000 -0.0611589048 -0.9981280421  0.0000000000 -0.0000000000 
  0.0000000000  0.0000000000 -0.0000000000 -0.9992582570  0.0385089054 
  0.0000000000  0.0000000000 -0.0000000000  0.0385089054  0.9992582570 
 ***********************************
 ***********************************
 
 
 Major CI contributions to CI states
 
State    1  0.0000     CI coeff  CI percent
    Config       1   1.00000000  1.00000000
 Total coeff printed             1.00000000
  
State    2 11.2030     CI coeff  CI percent
    Config       2  -0.99812804  0.99625959
    Config       3   0.06115890  0.00374041
 Total coeff printed             1.00000000
  
State    3 12.0307     CI coeff  CI percent
    Config       2  -0.06115890  0.00374041
    Config       3  -0.99812804  0.99625959
 Total coeff printed             1.00000000
  
State    4 13.9154     CI coeff  CI percent
    Config       4  -0.99925826  0.99851706
 Total coeff printed             0.99851706
  
State    5 14.7915     CI coeff  CI percent
    Config       5   0.99925826  0.99851706
 Total coeff printed             0.99851706
  

 -------------------------------------------------------------------------------
 INDO C.I.=(4,2) AllVEC CHARGE=0 RELSCF=0.000001




     1SCF WAS SPECIFIED, SO BFGS WAS NOT USED                 
     SCF FIELD WAS ACHIEVED                                   


                              INDO CALCULATION
                                                       MOPAC2016 (Version: 20.173L)
                                                       Thu Jun  1 14:00:57 2023




          FINAL HEAT OF FORMATION =      -8366.49509 KCAL/MOL =  -35005.41545 KJ/MOL


          TOTAL ENERGY            =       -369.90730 EV
          ELECTRONIC ENERGY       =       -466.43293 EV  POINT GROUP:     C2v 
          CORE-CORE REPULSION     =         96.52562 EV
          COSMO AREA              =         42.56 SQUARE ANGSTROMS
          COSMO VOLUME            =         25.25 CUBIC ANGSTROMS

          IONIZATION POTENTIAL    =         12.824015 EV
          HOMO LUMO ENERGIES (EV) =        -12.824  6.355
          NO. OF FILLED LEVELS    =          4
          MOLECULAR WEIGHT        =         18.0152

          MOLECULAR DIMENSIONS (Angstroms)

            Atom       Atom       Distance
            H     3    H     2     1.50675
            H     2    O     1     0.58719
            O     1    H     2     0.00000


          SCF CALCULATIONS        =          1
 
          WALL-CLOCK TIME         =          0.023 SECONDS
          COMPUTATION TIME        =          0.010 SECONDS




   ATOM   CHEMICAL          X               Y               Z
  NUMBER   SYMBOL      (ANGSTROMS)     (ANGSTROMS)     (ANGSTROMS)
 
     1       O         -1.05203099  *   0.46538549  *   0.01301468  *
     2       H         -0.09801086  *   0.45109289  *  -0.11810601  *
     3       H         -1.28572103  *   1.37778407  *  -0.08847613  *

                             CARTESIAN COORDINATES

   1    O       -1.052030985     0.465385486     0.013014675
   2    H       -0.098010860     0.451092893    -0.118106006
   3    H       -1.285721027     1.377784071    -0.088476129


           Empirical Formula: H2 O  =     3 atoms



      MOLECULAR POINT GROUP   :   C2v 


                EIGENVECTORS  


   Root No.       1         2         3         4         5         6

                 1 a1      1 b2      2 a1      1 b1      3 a1      2 b2  

               -41.001   -19.728   -14.740   -12.824     6.355     8.004
  
  S   O    1    0.8299    0.0054   -0.3992    0.0000   -0.3886   -0.0305
  Px  O    1    0.1040    0.6127    0.5146    0.1369   -0.3348    0.4671
  Py  O    1    0.1383   -0.4854    0.6560    0.1441   -0.3529   -0.4118
  Pz  O    1   -0.0349   -0.0142   -0.1683    0.9801    0.0986   -0.0047
  S   H    2    0.3703    0.4434    0.2440   -0.0000    0.5867   -0.5123
  S   H    3    0.3782   -0.4383    0.2402   -0.0000    0.5084    0.5906


              NET ATOMIC CHARGES AND DIPOLE CONTRIBUTIONS

  ATOM NO.   TYPE          CHARGE      No. of ELECS.   s-Pop       p-Pop       
    1          O          -0.427825        6.4278     1.69617     4.73165
    2          H           0.213397        0.7866     0.78660
    3          H           0.214427        0.7856     0.78557
 DIPOLE           X         Y         Z       TOTAL
 POINT-CHG.     0.737     0.925    -0.239     1.207
 HYBRID         0.747     0.966    -0.246     1.246
 SUM            1.484     1.891    -0.485     2.452


          ATOMIC ORBITAL ELECTRON POPULATIONS

     Atom    s        px        py        pz   
    1  O   1.69617   1.33944   1.41171   1.98050
    2  H   0.78660
    3  H   0.78557

 **********************
 *                    *
 * JOB ENDED NORMALLY *
 *                    *
 **********************



 TOTAL JOB TIME:             0.05 SECONDS

 == MOPAC DONE ==


          MOPAC Job: "./h2oTraj/h2o_29.mop" ended normally on Jun  1, 2023, at 14:00.

rm: cannot remove ‘./h2oTraj/h2o_29.cim’: No such file or directory
rm: cannot remove ‘./h2oTraj/h2o_29.end’: No such file or directory
rm: cannot remove ‘./h2oTraj/h2o_29.log’: No such file or directory
rm: cannot remove ‘./h2oTraj/h2o_29.temp’: No such file or directory
rm: cannot remove ‘./h2oTraj/h2o_29.ple’: No such file or directory
rm: cannot remove ‘./h2oTraj/h2o_29.sts’: No such file or directory
