 *******************************************************************************
 ** Site#:    0         For non-commercial use only    Version 20.173L 64BITS **
 *******************************************************************************
 ** Cite this program as: MOPAC2016, Version: 20.173L, James J. P. Stewart,   **
 ** Stewart Computational Chemistry, web-site: HTTP://OpenMOPAC.net.          **
 *******************************************************************************
 **                                                                           **
 **                                MOPAC2016                                  **
 **                                                                           **
 *******************************************************************************

                              INDO CALCULATION RESULTS

 *******************************************************************************
 *  CALCULATION DONE:                                Thu Jun  1 14:01:01 2023  *
 *  INDO       - The INDO Hamiltonian to be used
 *
 *
 *
 *                 CHARGE ON SYSTEM = 0
 *
 *
 *
 *  C.I.=(N,M) - 2 DOUBLY FILLED LEVELS USED IN A C.I. INVOLVING 4 M.O.'S
 *  T=         - A TIME OF 172800.0 SECONDS REQUESTED
 *  DUMP=N     - RESTART FILE WRITTEN EVERY 7200.0 SECONDS REQUESTED
 *  RELSCF     - DEFAULT SCF CRITERION MULTIPLIED BY 0.0000
 *              (DEFAULT SCF CRITERION = 0.00010)
 *  ALLVEC     - PRINT ALL EIGENVECTORS
 **********
 *  WARNING: Specified print options may not behave as expected with INDO
 **********
 *******************************************************************************
INDO C.I.=(4,2) AllVEC CHARGE=0 RELSCF=0.000001


   ATOM   CHEMICAL          X               Y               Z
  NUMBER   SYMBOL      (ANGSTROMS)     (ANGSTROMS)     (ANGSTROMS)
 
     1       O         -1.05116942  *   0.47349887  *   0.02584587  *
     2       H         -0.09883200  *   0.35441780  *  -0.16224294  *
     3       H         -1.29857550  *   1.34567530  *  -0.24800901  *
 


          CARTESIAN COORDINATES 

    NO.       ATOM           X           Y           Z

     1         O         -1.0512      0.4735      0.0258
     2         H         -0.0988      0.3544     -0.1622
     3         H         -1.2986      1.3457     -0.2480

           Empirical Formula: H2 O  =     3 atoms



      MOLECULAR POINT GROUP   :   C2v 


      RHF CALCULATION, NO. OF DOUBLY OCCUPIED LEVELS = 4

 WARNING: INDO only performs single-point calculations
  SCF CRITERION =    0.1000E-09

 Summary of symmetry occupancy in each shell:

 SHELL     
    1    4
    v    2
 TOTAL   6




    ROOT NO.    1           2           3           4           5           6

           -40.70400   -19.95424   -14.53177   -12.79265     6.08027     8.09990
  
  
  S  O   1   0.83468     0.01101    -0.38525     0.00000    -0.39015    -0.05040
 PX  O   1   0.09712     0.59139     0.52154     0.22339    -0.34800     0.44476
 PY  O   1   0.11980    -0.50144     0.58491     0.34912    -0.27875    -0.43875
 PZ  O   1  -0.06980     0.04719    -0.35241     0.91006     0.19236     0.05914
  
  S  H   2   0.36265     0.45022     0.24169    -0.00000     0.61220    -0.48227
  
  S  H   3   0.37833    -0.44018     0.23418    -0.00000     0.48703     0.60916


 Reference determinate nber   1 is ALPHA 1 -   4
 SINGLE excitations FROM orbs   3 to   4 INTO orbs   5 to   6
 

 CI excitations=    5:        =  5
 The lowest    5 spin-adapted configurations of multiplicity=  1
     sym   eV   cm**-1 -dets- dipole oscilator X FRAG ....Excitations named from first reference determinate
                       tot  #  Debye  strength
 
   1      0.000      0.  1  1  2.3950 0.000000 0  0 (     )->       )
   2     10.956  88370.  1  1  0.6542 0.032894 1  1 (   4 )->   5   )
   3     12.086  97484.  1  1  0.9557 0.000606 1  1 (   4 )->   6   )
   4     13.463 108588.  1  1  0.8894 0.026203 1  1 (   3 )->   5   )
   5     14.643 118103.  1  1  0.6070 0.204604 1  1 (   3 )->   6   )

 Depression of ground-state after CI=          0. cm**-1 Energy=  -465.6147058 eV
 Dipole moment=  1.456024  1.628364 -0.982087 tot=  2.395010 Debyes


  CI trans.  energy frequency wavelength oscillator ---------polarization---------    dipole   ------components----- 
 st.  symm.    eV      cm-1       nm      strength       x          y         z       moment     x       y       z 

   2     10.9499093    88317.    113.23  0.032049   0.223393   0.349120   0.910061  1.036742  -0.702   0.754  -0.117
   3     12.0929891    97537.    102.53  0.001518   0.223391   0.349123   0.910060  1.223863   1.193  -0.120  -0.247
   4     13.4605239   108567.     92.11  0.028895  -0.895918  -0.294239   0.332798  1.067765  -1.040   0.127   0.207
   5     14.6454464   118124.     84.66  0.201706  -0.742248   0.666101  -0.073331  0.847432   0.639  -0.554   0.056
 
 Polarizability (au  ) xx=    1.47 xy=   -0.89 yy=    1.03 xz=    0.13 yz=    0.06 zz=    0.56
 Polarizability (A**3) xx=    0.22 xy=   -0.13 yy=    0.15 xz=    0.02 yz=    0.01 zz=    0.08
 ***********************************
 ***********************************
 CI Matrix
  1.0000000000  0.0000000000  0.0000000000  0.0000000000  0.0000000000 
  0.0000000000 -0.9971353401  0.0756380428 -0.0000001335 -0.0000000007 
  0.0000000000 -0.0756380428 -0.9971353401 -0.0000001809 -0.0000001632 
  0.0000000000  0.0000001461  0.0000001625 -0.9989068583  0.0467449296 
  0.0000000000 -0.0000000199 -0.0000001704  0.0467449296  0.9989068583 
 ***********************************
 ***********************************
 
 
 Major CI contributions to CI states
 
State    1  0.0000     CI coeff  CI percent
    Config       1   1.00000000  1.00000000
 Total coeff printed             1.00000000
  
State    2 10.9499     CI coeff  CI percent
    Config       2  -0.99713534  0.99427889
    Config       3   0.07563804  0.00572111
 Total coeff printed             1.00000000
  
State    3 12.0930     CI coeff  CI percent
    Config       2  -0.07563804  0.00572111
    Config       3  -0.99713534  0.99427889
 Total coeff printed             1.00000000
  
State    4 13.4605     CI coeff  CI percent
    Config       4  -0.99890686  0.99781491
    Config       5   0.04674493  0.00218509
 Total coeff printed             1.00000000
  
State    5 14.6454     CI coeff  CI percent
    Config       4   0.04674493  0.00218509
    Config       5   0.99890686  0.99781491
 Total coeff printed             1.00000000
  

 -------------------------------------------------------------------------------
 INDO C.I.=(4,2) AllVEC CHARGE=0 RELSCF=0.000001




     1SCF WAS SPECIFIED, SO BFGS WAS NOT USED                 
     SCF FIELD WAS ACHIEVED                                   


                              INDO CALCULATION
                                                       MOPAC2016 (Version: 20.173L)
                                                       Thu Jun  1 14:01:01 2023




          FINAL HEAT OF FORMATION =      -8356.70427 KCAL/MOL =  -34964.45066 KJ/MOL


          TOTAL ENERGY            =       -369.48273 EV
          ELECTRONIC ENERGY       =       -465.61471 EV  POINT GROUP:     C2v 
          CORE-CORE REPULSION     =         96.13197 EV
          COSMO AREA              =         42.52 SQUARE ANGSTROMS
          COSMO VOLUME            =         25.23 CUBIC ANGSTROMS

          IONIZATION POTENTIAL    =         12.792647 EV
          HOMO LUMO ENERGIES (EV) =        -12.793  6.080
          NO. OF FILLED LEVELS    =          4
          MOLECULAR WEIGHT        =         18.0152

          MOLECULAR DIMENSIONS (Angstroms)

            Atom       Atom       Distance
            H     3    H     2     1.55863
            O     1    H     3     0.56480
            H     2    O     1     0.00000


          SCF CALCULATIONS        =          1
 
          WALL-CLOCK TIME         =          0.027 SECONDS
          COMPUTATION TIME        =          0.010 SECONDS




   ATOM   CHEMICAL          X               Y               Z
  NUMBER   SYMBOL      (ANGSTROMS)     (ANGSTROMS)     (ANGSTROMS)
 
     1       O         -1.05116942  *   0.47349887  *   0.02584587  *
     2       H         -0.09883200  *   0.35441780  *  -0.16224294  *
     3       H         -1.29857550  *   1.34567530  *  -0.24800901  *

                             CARTESIAN COORDINATES

   1    O       -1.051169421     0.473498870     0.025845872
   2    H       -0.098832001     0.354417795    -0.162242936
   3    H       -1.298575504     1.345675300    -0.248009006


           Empirical Formula: H2 O  =     3 atoms



      MOLECULAR POINT GROUP   :   C2v 


                EIGENVECTORS  


   Root No.       1         2         3         4         5         6

                 1 a1      1 b2      2 a1      1 b1      3 a1      2 b2  

               -40.704   -19.954   -14.532   -12.793     6.080     8.100
  
  S   O    1    0.8347    0.0110   -0.3853    0.0000   -0.3902   -0.0504
  Px  O    1    0.0971    0.5914    0.5215    0.2234   -0.3480    0.4448
  Py  O    1    0.1198   -0.5014    0.5849    0.3491   -0.2787   -0.4387
  Pz  O    1   -0.0698    0.0472   -0.3524    0.9101    0.1924    0.0591
  S   H    2    0.3627    0.4502    0.2417   -0.0000    0.6122   -0.4823
  S   H    3    0.3783   -0.4402    0.2342   -0.0000    0.4870    0.6092


              NET ATOMIC CHARGES AND DIPOLE CONTRIBUTIONS

  ATOM NO.   TYPE          CHARGE      No. of ELECS.   s-Pop       p-Pop       
    1          O          -0.431266        6.4313     1.69048     4.74079
    2          H           0.214731        0.7853     0.78527
    3          H           0.216535        0.7835     0.78347
 DIPOLE           X         Y         Z       TOTAL
 POINT-CHG.     0.725     0.784    -0.479     1.170
 HYBRID         0.731     0.844    -0.503     1.225
 SUM            1.456     1.628    -0.982     2.395


          ATOMIC ORBITAL ELECTRON POPULATIONS

     Atom    s        px        py        pz   
    1  O   1.69048   1.36218   1.45960   1.91900
    2  H   0.78527
    3  H   0.78347

 **********************
 *                    *
 * JOB ENDED NORMALLY *
 *                    *
 **********************



 TOTAL JOB TIME:             0.05 SECONDS

 == MOPAC DONE ==


          MOPAC Job: "./h2oTraj/h2o_63.mop" ended normally on Jun  1, 2023, at 14:01.

rm: cannot remove ‘./h2oTraj/h2o_63.cim’: No such file or directory
rm: cannot remove ‘./h2oTraj/h2o_63.end’: No such file or directory
rm: cannot remove ‘./h2oTraj/h2o_63.log’: No such file or directory
rm: cannot remove ‘./h2oTraj/h2o_63.temp’: No such file or directory
rm: cannot remove ‘./h2oTraj/h2o_63.ple’: No such file or directory
rm: cannot remove ‘./h2oTraj/h2o_63.sts’: No such file or directory
