 *******************************************************************************
 ** Site#:    0         For non-commercial use only    Version 20.173L 64BITS **
 *******************************************************************************
 ** Cite this program as: MOPAC2016, Version: 20.173L, James J. P. Stewart,   **
 ** Stewart Computational Chemistry, web-site: HTTP://OpenMOPAC.net.          **
 *******************************************************************************
 **                                                                           **
 **                                MOPAC2016                                  **
 **                                                                           **
 *******************************************************************************

                              INDO CALCULATION RESULTS

 *******************************************************************************
 *  CALCULATION DONE:                                Thu Jun  1 14:01:01 2023  *
 *  INDO       - The INDO Hamiltonian to be used
 *
 *
 *
 *                 CHARGE ON SYSTEM = 0
 *
 *
 *
 *  C.I.=(N,M) - 2 DOUBLY FILLED LEVELS USED IN A C.I. INVOLVING 4 M.O.'S
 *  T=         - A TIME OF 172800.0 SECONDS REQUESTED
 *  DUMP=N     - RESTART FILE WRITTEN EVERY 7200.0 SECONDS REQUESTED
 *  RELSCF     - DEFAULT SCF CRITERION MULTIPLIED BY 0.0000
 *              (DEFAULT SCF CRITERION = 0.00010)
 *  ALLVEC     - PRINT ALL EIGENVECTORS
 **********
 *  WARNING: Specified print options may not behave as expected with INDO
 **********
 *******************************************************************************
INDO C.I.=(4,2) AllVEC CHARGE=0 RELSCF=0.000001


   ATOM   CHEMICAL          X               Y               Z
  NUMBER   SYMBOL      (ANGSTROMS)     (ANGSTROMS)     (ANGSTROMS)
 
     1       O         -1.05246553  *   0.46928674  *   0.03030927  *
     2       H         -0.10813594  *   0.38082733  *  -0.18579254  *
     3       H         -1.26869840  *   1.38612502  *  -0.29530702  *
 


          CARTESIAN COORDINATES 

    NO.       ATOM           X           Y           Z

     1         O         -1.0525      0.4693      0.0303
     2         H         -0.1081      0.3808     -0.1858
     3         H         -1.2687      1.3861     -0.2953

           Empirical Formula: H2 O  =     3 atoms



      MOLECULAR POINT GROUP   :   C2v 


      RHF CALCULATION, NO. OF DOUBLY OCCUPIED LEVELS = 4

 WARNING: INDO only performs single-point calculations
  SCF CRITERION =    0.1000E-09

 Summary of symmetry occupancy in each shell:

 SHELL     
    1    4
    v    2
 TOTAL   6




    ROOT NO.    1           2           3           4           5           6

           -40.36951   -19.41255   -14.81347   -12.81982     5.95076     7.53591
  
  
  S  O   1   0.83510    -0.00884    -0.40036    -0.00000    -0.37428    -0.04638
 PX  O   1   0.11023     0.59553     0.50906     0.24004    -0.25023    -0.50381
 PY  O   1   0.11317    -0.50403     0.56131     0.37467    -0.38112     0.36393
 PZ  O   1  -0.07689     0.05125    -0.37128     0.89555     0.22652    -0.01722
  
  S  H   2   0.37452     0.43733     0.24920     0.00000     0.48306     0.61076
  
  S  H   3   0.36258    -0.44422     0.25603     0.00000     0.60613    -0.48811


 Reference determinate nber   1 is ALPHA 1 -   4
 SINGLE excitations FROM orbs   3 to   4 INTO orbs   5 to   6
 

 CI excitations=    5:        =  5
 The lowest    5 spin-adapted configurations of multiplicity=  1
     sym   eV   cm**-1 -dets- dipole oscilator X FRAG ....Excitations named from first reference determinate
                       tot  #  Debye  strength
 
   1      0.000      0.  1  1  2.4844 0.000000 0  0 (     )->       )
   2     10.790  87027.  1  1  0.6158 0.029812 1  1 (   4 )->   5   )
   3     11.618  93708.  1  1  0.8817 0.000493 1  1 (   4 )->   6   )
   4     13.712 110594.  1  1  0.8520 0.044955 1  1 (   3 )->   5   )
   5     14.508 117012.  1  1  0.5826 0.223104 1  1 (   3 )->   6   )

 Depression of ground-state after CI=          0. cm**-1 Energy=  -463.5739029 eV
 Dipole moment=  1.500301  1.651257 -1.092957 tot=  2.484372 Debyes


  CI trans.  energy frequency wavelength oscillator ---------polarization---------    dipole   ------components----- 
 st.  symm.    eV      cm-1       nm      strength       x          y         z       moment     x       y       z 

   2     10.7835452    86975.    114.98  0.028931   0.240035   0.374667   0.895549  1.047833   0.859  -0.600   0.021
   3     11.6246536    93759.    106.66  0.001424   0.240032   0.374668   0.895549  1.199526  -0.357   1.087  -0.359
   4     13.7082278   110565.     90.44  0.048992  -0.239791  -0.871049   0.428688  1.106068   0.338  -1.001   0.328
   5     14.5111538   117041.     85.44  0.218874   0.794814  -0.605515   0.040291  0.917748  -0.723   0.563  -0.042
 
 Polarizability (au  ) xx=    1.53 xy=   -0.94 yy=    1.37 xz=    0.14 yz=   -0.08 zz=    0.57
 Polarizability (A**3) xx=    0.23 xy=   -0.14 yy=    0.20 xz=    0.02 yz=   -0.01 zz=    0.08
 ***********************************
 ***********************************
 CI Matrix
  1.0000000000  0.0000000000  0.0000000000  0.0000000000  0.0000000000 
  0.0000000000 -0.9961997749  0.0870976955  0.0000001189 -0.0000000053 
  0.0000000000 -0.0870976955 -0.9961997749  0.0000000567  0.0000001209 
  0.0000000000 -0.0000001228 -0.0000000379 -0.9977648835  0.0668224301 
  0.0000000000  0.0000000135  0.0000001237  0.0668224301  0.9977648835 
 ***********************************
 ***********************************
 
 
 Major CI contributions to CI states
 
State    1  0.0000     CI coeff  CI percent
    Config       1   1.00000000  1.00000000
 Total coeff printed             1.00000000
  
State    2 10.7835     CI coeff  CI percent
    Config       2  -0.99619977  0.99241399
    Config       3   0.08709770  0.00758601
 Total coeff printed             1.00000000
  
State    3 11.6247     CI coeff  CI percent
    Config       2  -0.08709770  0.00758601
    Config       3  -0.99619977  0.99241399
 Total coeff printed             1.00000000
  
State    4 13.7082     CI coeff  CI percent
    Config       4  -0.99776488  0.99553476
    Config       5   0.06682243  0.00446524
 Total coeff printed             1.00000000
  
State    5 14.5112     CI coeff  CI percent
    Config       4   0.06682243  0.00446524
    Config       5   0.99776488  0.99553476
 Total coeff printed             1.00000000
  

 -------------------------------------------------------------------------------
 INDO C.I.=(4,2) AllVEC CHARGE=0 RELSCF=0.000001




     1SCF WAS SPECIFIED, SO BFGS WAS NOT USED                 
     SCF FIELD WAS ACHIEVED                                   


                              INDO CALCULATION
                                                       MOPAC2016 (Version: 20.173L)
                                                       Thu Jun  1 14:01:02 2023




          FINAL HEAT OF FORMATION =      -8328.64599 KCAL/MOL =  -34847.05483 KJ/MOL


          TOTAL ENERGY            =       -368.26601 EV
          ELECTRONIC ENERGY       =       -463.57390 EV  POINT GROUP:     C2v 
          CORE-CORE REPULSION     =         95.30789 EV
          COSMO AREA              =         43.02 SQUARE ANGSTROMS
          COSMO VOLUME            =         25.64 CUBIC ANGSTROMS

          IONIZATION POTENTIAL    =         12.819819 EV
          HOMO LUMO ENERGIES (EV) =        -12.820  5.951
          NO. OF FILLED LEVELS    =          4
          MOLECULAR WEIGHT        =         18.0152

          MOLECULAR DIMENSIONS (Angstroms)

            Atom       Atom       Distance
            H     3    H     2     1.53933
            O     1    H     3     0.61418
            H     2    O     1     0.00000


          SCF CALCULATIONS        =          1
 
          WALL-CLOCK TIME         =          0.020 SECONDS
          COMPUTATION TIME        =          0.010 SECONDS




   ATOM   CHEMICAL          X               Y               Z
  NUMBER   SYMBOL      (ANGSTROMS)     (ANGSTROMS)     (ANGSTROMS)
 
     1       O         -1.05246553  *   0.46928674  *   0.03030927  *
     2       H         -0.10813594  *   0.38082733  *  -0.18579254  *
     3       H         -1.26869840  *   1.38612502  *  -0.29530702  *

                             CARTESIAN COORDINATES

   1    O       -1.052465531     0.469286737     0.030309272
   2    H       -0.108135938     0.380827330    -0.185792535
   3    H       -1.268698400     1.386125024    -0.295307015


           Empirical Formula: H2 O  =     3 atoms



      MOLECULAR POINT GROUP   :   C2v 


                EIGENVECTORS  


   Root No.       1         2         3         4         5         6

                 1 a1      1 b2      2 a1      1 b1      3 a1      2 b2  

               -40.370   -19.413   -14.813   -12.820     5.951     7.536
  
  S   O    1    0.8351   -0.0088   -0.4004   -0.0000   -0.3743   -0.0464
  Px  O    1    0.1102    0.5955    0.5091    0.2400   -0.2502   -0.5038
  Py  O    1    0.1132   -0.5040    0.5613    0.3747   -0.3811    0.3639
  Pz  O    1   -0.0769    0.0513   -0.3713    0.8955    0.2265   -0.0172
  S   H    2    0.3745    0.4373    0.2492    0.0000    0.4831    0.6108
  S   H    3    0.3626   -0.4442    0.2560    0.0000    0.6061   -0.4881


              NET ATOMIC CHARGES AND DIPOLE CONTRIBUTIONS

  ATOM NO.   TYPE          CHARGE      No. of ELECS.   s-Pop       p-Pop       
    1          O          -0.424049        6.4240     1.71553     4.70852
    2          H           0.212751        0.7872     0.78725
    3          H           0.211297        0.7887     0.78870
 DIPOLE           X         Y         Z       TOTAL
 POINT-CHG.     0.746     0.840    -0.551     1.251
 HYBRID         0.755     0.811    -0.542     1.233
 SUM            1.500     1.651    -1.093     2.485


          ATOMIC ORBITAL ELECTRON POPULATIONS

     Atom    s        px        py        pz   
    1  O   1.71553   1.36712   1.44461   1.89679
    2  H   0.78725
    3  H   0.78870

 **********************
 *                    *
 * JOB ENDED NORMALLY *
 *                    *
 **********************



 TOTAL JOB TIME:             0.04 SECONDS

 == MOPAC DONE ==


          MOPAC Job: "./h2oTraj/h2o_66.mop" ended normally on Jun  1, 2023, at 14:01.

rm: cannot remove ‘./h2oTraj/h2o_66.cim’: No such file or directory
rm: cannot remove ‘./h2oTraj/h2o_66.end’: No such file or directory
rm: cannot remove ‘./h2oTraj/h2o_66.log’: No such file or directory
rm: cannot remove ‘./h2oTraj/h2o_66.temp’: No such file or directory
rm: cannot remove ‘./h2oTraj/h2o_66.ple’: No such file or directory
rm: cannot remove ‘./h2oTraj/h2o_66.sts’: No such file or directory
