 *******************************************************************************
 ** Site#:    0         For non-commercial use only    Version 20.173L 64BITS **
 *******************************************************************************
 ** Cite this program as: MOPAC2016, Version: 20.173L, James J. P. Stewart,   **
 ** Stewart Computational Chemistry, web-site: HTTP://OpenMOPAC.net.          **
 *******************************************************************************
 **                                                                           **
 **                                MOPAC2016                                  **
 **                                                                           **
 *******************************************************************************

                              INDO CALCULATION RESULTS

 *******************************************************************************
 *  CALCULATION DONE:                                Thu Jun  1 14:00:56 2023  *
 *  INDO       - The INDO Hamiltonian to be used
 *
 *
 *
 *                 CHARGE ON SYSTEM = 0
 *
 *
 *
 *  C.I.=(N,M) - 2 DOUBLY FILLED LEVELS USED IN A C.I. INVOLVING 4 M.O.'S
 *  T=         - A TIME OF 172800.0 SECONDS REQUESTED
 *  DUMP=N     - RESTART FILE WRITTEN EVERY 7200.0 SECONDS REQUESTED
 *  RELSCF     - DEFAULT SCF CRITERION MULTIPLIED BY 0.0000
 *              (DEFAULT SCF CRITERION = 0.00010)
 *  ALLVEC     - PRINT ALL EIGENVECTORS
 **********
 *  WARNING: Specified print options may not behave as expected with INDO
 **********
 *******************************************************************************
INDO C.I.=(4,2) AllVEC CHARGE=0 RELSCF=0.000001


   ATOM   CHEMICAL          X               Y               Z
  NUMBER   SYMBOL      (ANGSTROMS)     (ANGSTROMS)     (ANGSTROMS)
 
     1       O         -1.05249725  *   0.46632158  *   0.01094240  *
     2       H         -0.04470373  *   0.43109886  *  -0.09715504  *
     3       H         -1.33162718  *   1.38291948  *  -0.07653382  *
 


          CARTESIAN COORDINATES 

    NO.       ATOM           X           Y           Z

     1         O         -1.0525      0.4663      0.0109
     2         H         -0.0447      0.4311     -0.0972
     3         H         -1.3316      1.3829     -0.0765

           Empirical Formula: H2 O  =     3 atoms



      MOLECULAR POINT GROUP   :   C2v 


      RHF CALCULATION, NO. OF DOUBLY OCCUPIED LEVELS = 4

 WARNING: INDO only performs single-point calculations
  SCF CRITERION =    0.1000E-09

 Summary of symmetry occupancy in each shell:

 SHELL     
    1    4
    v    2
 TOTAL   6




    ROOT NO.    1           2           3           4           5           6

           -40.13455   -19.75115   -14.52726   -12.77998     5.65297     7.78084
  
  
  S  O   1   0.84006     0.01972    -0.38244     0.00000    -0.37597    -0.07937
 PX  O   1   0.09003     0.61186     0.51481     0.11019    -0.38327     0.43985
 PY  O   1   0.13778    -0.47620     0.66897     0.12762    -0.30360    -0.44528
 PZ  O   1  -0.02790    -0.00674    -0.14416     0.98568     0.08215     0.00848
  
  S  H   2   0.35143     0.45402     0.25237    -0.00000     0.64462    -0.43718
  
  S  H   3   0.37807    -0.43852     0.23816    -0.00000     0.44417     0.64091


 Reference determinate nber   1 is ALPHA 1 -   4
 SINGLE excitations FROM orbs   3 to   4 INTO orbs   5 to   6
 

 CI excitations=    5:        =  5
 The lowest    5 spin-adapted configurations of multiplicity=  1
     sym   eV   cm**-1 -dets- dipole oscilator X FRAG ....Excitations named from first reference determinate
                       tot  #  Debye  strength
 
   1      0.000      0.  1  1  2.4064 0.000000 0  0 (     )->       )
   2     10.519  84844.  1  1  1.0454 0.029328 1  1 (   4 )->   5   )
   3     11.809  95242.  1  1  1.1926 0.001467 1  1 (   4 )->   6   )
   4     13.138 105968.  1  1  1.1795 0.038028 1  1 (   3 )->   5   )
   5     14.398 116132.  1  1  0.9842 0.210914 1  1 (   3 )->   6   )

 Depression of ground-state after CI=          0. cm**-1 Energy=  -463.1132492 eV
 Dipole moment=  1.447188  1.879463 -0.405126 tot=  2.406421 Debyes


  CI trans.  energy frequency wavelength oscillator ---------polarization---------    dipole   ------components----- 
 st.  symm.    eV      cm-1       nm      strength       x          y         z       moment     x       y       z 

   2     10.5059846    84737.    118.01  0.027771   0.110186   0.127625   0.985683  1.533024  -1.137   1.028  -0.006
   3     11.8218021    95350.    104.88  0.003179   0.110185   0.127627   0.985683  1.597403   1.558  -0.325  -0.132
   4     13.1320725   105918.     94.41  0.044598  -0.961913  -0.235922   0.138076  1.477355  -1.431   0.348   0.115
   5     14.4047013   116182.     86.07  0.203779  -0.756695   0.653768  -0.000060  1.328162   1.047  -0.817  -0.011
 
 Polarizability (au  ) xx=    1.79 xy=   -0.94 yy=    0.97 xz=   -0.01 yz=    0.06 zz=    0.60
 Polarizability (A**3) xx=    0.26 xy=   -0.14 yy=    0.14 xz=   -0.00 yz=    0.01 zz=    0.09
 ***********************************
 ***********************************
 CI Matrix
  1.0000000000  0.0000000000  0.0000000000  0.0000000000  0.0000000000 
  0.0000000000 -0.9949345656  0.1005246748 -0.0000001407  0.0000000066 
  0.0000000000 -0.1005246748 -0.9949345656 -0.0000001824 -0.0000001743 
  0.0000000000  0.0000001572  0.0000001547 -0.9975574366  0.0698509886 
  0.0000000000 -0.0000000220 -0.0000001853  0.0698509886  0.9975574366 
 ***********************************
 ***********************************
 
 
 Major CI contributions to CI states
 
State    1  0.0000     CI coeff  CI percent
    Config       1   1.00000000  1.00000000
 Total coeff printed             1.00000000
  
State    2 10.5060     CI coeff  CI percent
    Config       2  -0.99493457  0.98989479
    Config       3   0.10052467  0.01010521
 Total coeff printed             1.00000000
  
State    3 11.8218     CI coeff  CI percent
    Config       2  -0.10052467  0.01010521
    Config       3  -0.99493457  0.98989479
 Total coeff printed             1.00000000
  
State    4 13.1321     CI coeff  CI percent
    Config       4  -0.99755744  0.99512084
    Config       5   0.06985099  0.00487916
 Total coeff printed             1.00000000
  
State    5 14.4047     CI coeff  CI percent
    Config       4   0.06985099  0.00487916
    Config       5   0.99755744  0.99512084
 Total coeff printed             1.00000000
  

 -------------------------------------------------------------------------------
 INDO C.I.=(4,2) AllVEC CHARGE=0 RELSCF=0.000001




     1SCF WAS SPECIFIED, SO BFGS WAS NOT USED                 
     SCF FIELD WAS ACHIEVED                                   


                              INDO CALCULATION
                                                       MOPAC2016 (Version: 20.173L)
                                                       Thu Jun  1 14:00:56 2023




          FINAL HEAT OF FORMATION =      -8323.74876 KCAL/MOL =  -34826.56482 KJ/MOL


          TOTAL ENERGY            =       -368.05365 EV
          ELECTRONIC ENERGY       =       -463.11325 EV  POINT GROUP:     C2v 
          CORE-CORE REPULSION     =         95.05960 EV
          COSMO AREA              =         42.95 SQUARE ANGSTROMS
          COSMO VOLUME            =         25.53 CUBIC ANGSTROMS

          IONIZATION POTENTIAL    =         12.779979 EV
          HOMO LUMO ENERGIES (EV) =        -12.780  5.653
          NO. OF FILLED LEVELS    =          4
          MOLECULAR WEIGHT        =         18.0152

          MOLECULAR DIMENSIONS (Angstroms)

            Atom       Atom       Distance
            H     3    H     2     1.60080
            H     2    O     1     0.57920
            H     3    O     1     0.00000


          SCF CALCULATIONS        =          1
 
          WALL-CLOCK TIME         =          0.098 SECONDS
          COMPUTATION TIME        =          0.010 SECONDS




   ATOM   CHEMICAL          X               Y               Z
  NUMBER   SYMBOL      (ANGSTROMS)     (ANGSTROMS)     (ANGSTROMS)
 
     1       O         -1.05249725  *   0.46632158  *   0.01094240  *
     2       H         -0.04470373  *   0.43109886  *  -0.09715504  *
     3       H         -1.33162718  *   1.38291948  *  -0.07653382  *

                             CARTESIAN COORDINATES

   1    O       -1.052497247     0.466321580     0.010942398
   2    H       -0.044703726     0.431098858    -0.097155038
   3    H       -1.331627179     1.382919475    -0.076533817


           Empirical Formula: H2 O  =     3 atoms



      MOLECULAR POINT GROUP   :   C2v 


                EIGENVECTORS  


   Root No.       1         2         3         4         5         6

                 1 a1      1 b2      2 a1      1 b1      3 a1      2 b2  

               -40.135   -19.751   -14.527   -12.780     5.653     7.781
  
  S   O    1    0.8401    0.0197   -0.3824    0.0000   -0.3760   -0.0794
  Px  O    1    0.0900    0.6119    0.5148    0.1102   -0.3833    0.4398
  Py  O    1    0.1378   -0.4762    0.6690    0.1276   -0.3036   -0.4453
  Pz  O    1   -0.0279   -0.0067   -0.1442    0.9857    0.0822    0.0085
  S   H    2    0.3514    0.4540    0.2524   -0.0000    0.6446   -0.4372
  S   H    3    0.3781   -0.4385    0.2382   -0.0000    0.4442    0.6409


              NET ATOMIC CHARGES AND DIPOLE CONTRIBUTIONS

  ATOM NO.   TYPE          CHARGE      No. of ELECS.   s-Pop       p-Pop       
    1          O          -0.429436        6.4294     1.70469     4.72474
    2          H           0.213339        0.7867     0.78666
    3          H           0.216097        0.7839     0.78390
 DIPOLE           X         Y         Z       TOTAL
 POINT-CHG.     0.743     0.915    -0.202     1.196
 HYBRID         0.704     0.964    -0.204     1.211
 SUM            1.447     1.880    -0.405     2.407


          ATOMIC ORBITAL ELECTRON POPULATIONS

     Atom    s        px        py        pz   
    1  O   1.70469   1.31928   1.41911   1.98636
    2  H   0.78666
    3  H   0.78390

 **********************
 *                    *
 * JOB ENDED NORMALLY *
 *                    *
 **********************



 TOTAL JOB TIME:             0.20 SECONDS

 == MOPAC DONE ==


          MOPAC Job: "./h2oTraj/h2o_14.mop" ended normally on Jun  1, 2023, at 14:00.

rm: cannot remove ‘./h2oTraj/h2o_14.cim’: No such file or directory
rm: cannot remove ‘./h2oTraj/h2o_14.end’: No such file or directory
rm: cannot remove ‘./h2oTraj/h2o_14.log’: No such file or directory
rm: cannot remove ‘./h2oTraj/h2o_14.temp’: No such file or directory
rm: cannot remove ‘./h2oTraj/h2o_14.ple’: No such file or directory
rm: cannot remove ‘./h2oTraj/h2o_14.sts’: No such file or directory
