 *******************************************************************************
 ** Site#:    0         For non-commercial use only    Version 20.173L 64BITS **
 *******************************************************************************
 ** Cite this program as: MOPAC2016, Version: 20.173L, James J. P. Stewart,   **
 ** Stewart Computational Chemistry, web-site: HTTP://OpenMOPAC.net.          **
 *******************************************************************************
 **                                                                           **
 **                                MOPAC2016                                  **
 **                                                                           **
 *******************************************************************************

                              INDO CALCULATION RESULTS

 *******************************************************************************
 *  CALCULATION DONE:                                Thu Jun  1 14:00:57 2023  *
 *  INDO       - The INDO Hamiltonian to be used
 *
 *
 *
 *                 CHARGE ON SYSTEM = 0
 *
 *
 *
 *  C.I.=(N,M) - 2 DOUBLY FILLED LEVELS USED IN A C.I. INVOLVING 4 M.O.'S
 *  T=         - A TIME OF 172800.0 SECONDS REQUESTED
 *  DUMP=N     - RESTART FILE WRITTEN EVERY 7200.0 SECONDS REQUESTED
 *  RELSCF     - DEFAULT SCF CRITERION MULTIPLIED BY 0.0000
 *              (DEFAULT SCF CRITERION = 0.00010)
 *  ALLVEC     - PRINT ALL EIGENVECTORS
 **********
 *  WARNING: Specified print options may not behave as expected with INDO
 **********
 *******************************************************************************
INDO C.I.=(4,2) AllVEC CHARGE=0 RELSCF=0.000001


   ATOM   CHEMICAL          X               Y               Z
  NUMBER   SYMBOL      (ANGSTROMS)     (ANGSTROMS)     (ANGSTROMS)
 
     1       O         -1.05196442  *   0.46610038  *   0.01723582  *
     2       H         -0.09739340  *   0.42522877  *  -0.14536885  *
     3       H         -1.28739513  *   1.39230064  *  -0.12821557  *
 


          CARTESIAN COORDINATES 

    NO.       ATOM           X           Y           Z

     1         O         -1.0520      0.4661      0.0172
     2         H         -0.0974      0.4252     -0.1454
     3         H         -1.2874      1.3923     -0.1282

           Empirical Formula: H2 O  =     3 atoms



      MOLECULAR POINT GROUP   :   C2v 


      RHF CALCULATION, NO. OF DOUBLY OCCUPIED LEVELS = 4

 WARNING: INDO only performs single-point calculations
  SCF CRITERION =    0.1000E-09

 Summary of symmetry occupancy in each shell:

 SHELL     
    1    4
    v    2
 TOTAL   6




    ROOT NO.    1           2           3           4           5           6

           -40.68435   -19.68298   -14.70898   -12.81448     6.14929     7.84403
  
  
  S  O   1   0.83315     0.00090    -0.39591    -0.00000    -0.38613    -0.00470
 PX  O   1   0.10535     0.60497     0.51663     0.17281    -0.30685     0.48165
 PY  O   1   0.13108    -0.49284     0.63825     0.19553    -0.36786    -0.39877
 PZ  O   1  -0.04541    -0.00848    -0.22176     0.96535     0.12944    -0.00545
  
  S  H   2   0.37053     0.44258     0.24508     0.00000     0.55587    -0.54569
  
  S  H   3   0.37179    -0.44179     0.24444     0.00000     0.54376     0.55782


 Reference determinate nber   1 is ALPHA 1 -   4
 SINGLE excitations FROM orbs   3 to   4 INTO orbs   5 to   6
 

 CI excitations=    5:        =  5
 The lowest    5 spin-adapted configurations of multiplicity=  1
     sym   eV   cm**-1 -dets- dipole oscilator X FRAG ....Excitations named from first reference determinate
                       tot  #  Debye  strength
 
   1      0.000      0.  1  1  2.4481 0.000000 0  0 (     )->       )
   2     11.010  88798.  1  1  0.1296 0.032376 1  1 (   4 )->   5   )
   3     11.873  95765.  1  1  0.7225 0.000005 1  1 (   4 )->   6   )
   4     13.734 110772.  1  1  0.6343 0.031642 1  1 (   3 )->   5   )
   5     14.628 117985.  1  1  0.0632 0.215573 1  1 (   3 )->   6   )

 Depression of ground-state after CI=          0. cm**-1 Energy=  -465.1651118 eV
 Dipole moment=  1.487004  1.836960 -0.638263 tot=  2.448057 Debyes


  CI trans.  energy frequency wavelength oscillator ---------polarization---------    dipole   ------components----- 
 st.  symm.    eV      cm-1       nm      strength       x          y         z       moment     x       y       z 

   2     11.0095114    88798.    112.62  0.032366   0.172812   0.195527   0.965352  0.157374  -0.014   0.154  -0.029
   3     11.8734092    95766.    104.42  0.000016   0.172840   0.195520   0.965349  0.727518   0.517   0.475  -0.189
   4     13.7339241   110772.     90.28  0.031676  -0.643596  -0.719507   0.260946  0.637804  -0.453  -0.417   0.166
   5     14.6283171   117986.     84.76  0.215537  -0.772514   0.634924   0.009691  0.092392   0.053  -0.075   0.006
 
 Polarizability (au  ) xx=    1.51 xy=   -0.90 yy=    1.12 xz=    0.02 yz=    0.06 zz=    0.58
 Polarizability (A**3) xx=    0.22 xy=   -0.13 yy=    0.17 xz=    0.00 yz=    0.01 zz=    0.09
 ***********************************
 ***********************************
 CI Matrix
  1.0000000000  0.0000000000  0.0000000000  0.0000000000  0.0000000000 
  0.0000000000 -0.9999595114  0.0089986465  0.0000001149 -0.0000000153 
  0.0000000000 -0.0089986465 -0.9999595114 -0.0000001175  0.0000001080 
  0.0000000000 -0.0000001139  0.0000001192 -0.9999825522  0.0059072252 
  0.0000000000 -0.0000000136  0.0000001074  0.0059072252  0.9999825522 
 ***********************************
 ***********************************
 
 
 Major CI contributions to CI states
 
State    1  0.0000     CI coeff  CI percent
    Config       1   1.00000000  1.00000000
 Total coeff printed             1.00000000
  
State    2 11.0095     CI coeff  CI percent
    Config       2  -0.99995951  0.99991902
 Total coeff printed             0.99991902
  
State    3 11.8734     CI coeff  CI percent
    Config       3  -0.99995951  0.99991902
 Total coeff printed             0.99991902
  
State    4 13.7339     CI coeff  CI percent
    Config       4  -0.99998255  0.99996510
 Total coeff printed             0.99996510
  
State    5 14.6283     CI coeff  CI percent
    Config       5   0.99998255  0.99996510
 Total coeff printed             0.99996510
  

 -------------------------------------------------------------------------------
 INDO C.I.=(4,2) AllVEC CHARGE=0 RELSCF=0.000001




     1SCF WAS SPECIFIED, SO BFGS WAS NOT USED                 
     SCF FIELD WAS ACHIEVED                                   


                              INDO CALCULATION
                                                       MOPAC2016 (Version: 20.173L)
                                                       Thu Jun  1 14:00:57 2023




          FINAL HEAT OF FORMATION =      -8350.09735 KCAL/MOL =  -34936.80729 KJ/MOL


          TOTAL ENERGY            =       -369.19623 EV
          ELECTRONIC ENERGY       =       -465.16511 EV  POINT GROUP:     C2v 
          CORE-CORE REPULSION     =         95.96888 EV
          COSMO AREA              =         42.42 SQUARE ANGSTROMS
          COSMO VOLUME            =         25.19 CUBIC ANGSTROMS

          IONIZATION POTENTIAL    =         12.814478 EV
          HOMO LUMO ENERGIES (EV) =        -12.814  6.149
          NO. OF FILLED LEVELS    =          4
          MOLECULAR WEIGHT        =         18.0152

          MOLECULAR DIMENSIONS (Angstroms)

            Atom       Atom       Distance
            H     3    H     2     1.53350
            O     1    H     3     0.59073
            H     2    O     1     0.00000


          SCF CALCULATIONS        =          1
 
          WALL-CLOCK TIME         =          0.016 SECONDS
          COMPUTATION TIME        =          0.012 SECONDS




   ATOM   CHEMICAL          X               Y               Z
  NUMBER   SYMBOL      (ANGSTROMS)     (ANGSTROMS)     (ANGSTROMS)
 
     1       O         -1.05196442  *   0.46610038  *   0.01723582  *
     2       H         -0.09739340  *   0.42522877  *  -0.14536885  *
     3       H         -1.28739513  *   1.39230064  *  -0.12821557  *

                             CARTESIAN COORDINATES

   1    O       -1.051964417     0.466100382     0.017235818
   2    H       -0.097393396     0.425228773    -0.145368845
   3    H       -1.287395127     1.392300641    -0.128215565


           Empirical Formula: H2 O  =     3 atoms



      MOLECULAR POINT GROUP   :   C2v 


                EIGENVECTORS  


   Root No.       1         2         3         4         5         6

                 1 a1      1 b2      2 a1      1 b1      3 a1      2 b2  

               -40.684   -19.683   -14.709   -12.814     6.149     7.844
  
  S   O    1    0.8331    0.0009   -0.3959   -0.0000   -0.3861   -0.0047
  Px  O    1    0.1054    0.6050    0.5166    0.1728   -0.3069    0.4816
  Py  O    1    0.1311   -0.4928    0.6382    0.1955   -0.3679   -0.3988
  Pz  O    1   -0.0454   -0.0085   -0.2218    0.9654    0.1294   -0.0055
  S   H    2    0.3705    0.4426    0.2451    0.0000    0.5559   -0.5457
  S   H    3    0.3718   -0.4418    0.2444    0.0000    0.5438    0.5578


              NET ATOMIC CHARGES AND DIPOLE CONTRIBUTIONS

  ATOM NO.   TYPE          CHARGE      No. of ELECS.   s-Pop       p-Pop       
    1          O          -0.427224        6.4272     1.70176     4.72546
    2          H           0.213534        0.7865     0.78647
    3          H           0.213690        0.7863     0.78631
 DIPOLE           X         Y         Z       TOTAL
 POINT-CHG.     0.737     0.909    -0.316     1.212
 HYBRID         0.750     0.928    -0.322     1.236
 SUM            1.487     1.837    -0.638     2.448


          ATOMIC ORBITAL ELECTRON POPULATIONS

     Atom    s        px        py        pz   
    1  O   1.70176   1.34771   1.41132   1.96643
    2  H   0.78647
    3  H   0.78631

 **********************
 *                    *
 * JOB ENDED NORMALLY *
 *                    *
 **********************



 TOTAL JOB TIME:             0.04 SECONDS

 == MOPAC DONE ==


          MOPAC Job: "./h2oTraj/h2o_22.mop" ended normally on Jun  1, 2023, at 14:00.

rm: cannot remove ‘./h2oTraj/h2o_22.cim’: No such file or directory
rm: cannot remove ‘./h2oTraj/h2o_22.end’: No such file or directory
rm: cannot remove ‘./h2oTraj/h2o_22.log’: No such file or directory
rm: cannot remove ‘./h2oTraj/h2o_22.temp’: No such file or directory
rm: cannot remove ‘./h2oTraj/h2o_22.ple’: No such file or directory
rm: cannot remove ‘./h2oTraj/h2o_22.sts’: No such file or directory
