 *******************************************************************************
 ** Site#:    0         For non-commercial use only    Version 20.173L 64BITS **
 *******************************************************************************
 ** Cite this program as: MOPAC2016, Version: 20.173L, James J. P. Stewart,   **
 ** Stewart Computational Chemistry, web-site: HTTP://OpenMOPAC.net.          **
 *******************************************************************************
 **                                                                           **
 **                                MOPAC2016                                  **
 **                                                                           **
 *******************************************************************************

                              INDO CALCULATION RESULTS

 *******************************************************************************
 *  CALCULATION DONE:                                Thu Jun  1 14:00:59 2023  *
 *  INDO       - The INDO Hamiltonian to be used
 *
 *
 *
 *                 CHARGE ON SYSTEM = 0
 *
 *
 *
 *  C.I.=(N,M) - 2 DOUBLY FILLED LEVELS USED IN A C.I. INVOLVING 4 M.O.'S
 *  T=         - A TIME OF 172800.0 SECONDS REQUESTED
 *  DUMP=N     - RESTART FILE WRITTEN EVERY 7200.0 SECONDS REQUESTED
 *  RELSCF     - DEFAULT SCF CRITERION MULTIPLIED BY 0.0000
 *              (DEFAULT SCF CRITERION = 0.00010)
 *  ALLVEC     - PRINT ALL EIGENVECTORS
 **********
 *  WARNING: Specified print options may not behave as expected with INDO
 **********
 *******************************************************************************
INDO C.I.=(4,2) AllVEC CHARGE=0 RELSCF=0.000001


   ATOM   CHEMICAL          X               Y               Z
  NUMBER   SYMBOL      (ANGSTROMS)     (ANGSTROMS)     (ANGSTROMS)
 
     1       O         -1.05337998  *   0.46786368  *   0.01801106  *
     2       H         -0.07937449  *   0.42267280  *  -0.12878673  *
     3       H         -1.28294479  *   1.36686780  *  -0.15710307  *
 


          CARTESIAN COORDINATES 

    NO.       ATOM           X           Y           Z

     1         O         -1.0534      0.4679      0.0180
     2         H         -0.0794      0.4227     -0.1288
     3         H         -1.2829      1.3669     -0.1571

           Empirical Formula: H2 O  =     3 atoms



      MOLECULAR POINT GROUP   :   C2v 


      RHF CALCULATION, NO. OF DOUBLY OCCUPIED LEVELS = 4

 WARNING: INDO only performs single-point calculations
  SCF CRITERION =    0.1000E-09

 Summary of symmetry occupancy in each shell:

 SHELL     
    1    4
    v    2
 TOTAL   6




    ROOT NO.    1           2           3           4           5           6

           -40.75575   -19.70116   -14.70338   -12.81515     6.13501     7.94138
  
  
  S  O   1   0.83251     0.01474    -0.39580    -0.00000    -0.38011    -0.07466
 PX  O   1   0.09902     0.60431     0.51998     0.15543    -0.38499     0.42690
 PY  O   1   0.13553    -0.49345     0.63210     0.22696    -0.29229    -0.44905
 PZ  O   1  -0.04800     0.01879    -0.23328     0.96142     0.13124     0.03699
  
  S  H   2   0.36121     0.44854     0.24917     0.00000     0.63700    -0.44776
  
  S  H   3   0.38208    -0.43537     0.23857     0.00000     0.44595     0.63928


 Reference determinate nber   1 is ALPHA 1 -   4
 SINGLE excitations FROM orbs   3 to   4 INTO orbs   5 to   6
 

 CI excitations=    5:        =  5
 The lowest    5 spin-adapted configurations of multiplicity=  1
     sym   eV   cm**-1 -dets- dipole oscilator X FRAG ....Excitations named from first reference determinate
                       tot  #  Debye  strength
 
   1      0.000      0.  1  1  2.4457 0.000000 0  0 (     )->       )
   2     10.978  88543.  1  1  0.9510 0.031284 1  1 (   4 )->   5   )
   3     11.984  96654.  1  1  1.1248 0.001318 1  1 (   4 )->   6   )
   4     13.698 110486.  1  1  1.1076 0.039000 1  1 (   3 )->   5   )
   5     14.715 118688.  1  1  0.8957 0.206590 1  1 (   3 )->   6   )

 Depression of ground-state after CI=          0. cm**-1 Energy=  -465.4450365 eV
 Dipole moment=  1.495269  1.815537 -0.670331 tot=  2.445679 Debyes


  CI trans.  energy frequency wavelength oscillator ---------polarization---------    dipole   ------components----- 
 st.  symm.    eV      cm-1       nm      strength       x          y         z       moment     x       y       z 

   2     10.9634386    88426.    113.09  0.029380   0.155431   0.226962   0.961421  1.502732  -1.069   1.054  -0.076
   3     11.9980064    96771.    103.34  0.003358   0.155433   0.226960   0.961421  1.578627   1.524  -0.381  -0.157
   4     13.6918707   110433.     90.55  0.045904  -0.951093  -0.228624   0.207733  1.430694  -1.377   0.363   0.137
   5     14.7219547   118741.     84.22  0.199240  -0.732015   0.679982  -0.042179  1.275865   0.960  -0.839   0.043
 
 Polarizability (au  ) xx=    1.60 xy=   -0.88 yy=    1.00 xz=    0.04 yz=    0.05 zz=    0.58
 Polarizability (A**3) xx=    0.24 xy=   -0.13 yy=    0.15 xz=    0.01 yz=    0.01 zz=    0.09
 ***********************************
 ***********************************
 CI Matrix
  1.0000000000  0.0000000000  0.0000000000  0.0000000000  0.0000000000 
  0.0000000000 -0.9929754862  0.1183202594  0.0000001077 -0.0000000067 
  0.0000000000 -0.1183202594 -0.9929754862  0.0000001331  0.0000001422 
  0.0000000000 -0.0000001215 -0.0000001077 -0.9968066760  0.0798526814 
  0.0000000000  0.0000000199  0.0000001511  0.0798526814  0.9968066760 
 ***********************************
 ***********************************
 
 
 Major CI contributions to CI states
 
State    1  0.0000     CI coeff  CI percent
    Config       1   1.00000000  1.00000000
 Total coeff printed             1.00000000
  
State    2 10.9634     CI coeff  CI percent
    Config       2  -0.99297549  0.98600032
    Config       3   0.11832026  0.01399968
 Total coeff printed             1.00000000
  
State    3 11.9980     CI coeff  CI percent
    Config       2  -0.11832026  0.01399968
    Config       3  -0.99297549  0.98600032
 Total coeff printed             1.00000000
  
State    4 13.6919     CI coeff  CI percent
    Config       4  -0.99680668  0.99362355
    Config       5   0.07985268  0.00637645
 Total coeff printed             1.00000000
  
State    5 14.7220     CI coeff  CI percent
    Config       4   0.07985268  0.00637645
    Config       5   0.99680668  0.99362355
 Total coeff printed             1.00000000
  

 -------------------------------------------------------------------------------
 INDO C.I.=(4,2) AllVEC CHARGE=0 RELSCF=0.000001




     1SCF WAS SPECIFIED, SO BFGS WAS NOT USED                 
     SCF FIELD WAS ACHIEVED                                   


                              INDO CALCULATION
                                                       MOPAC2016 (Version: 20.173L)
                                                       Thu Jun  1 14:01:00 2023




          FINAL HEAT OF FORMATION =      -8353.70337 KCAL/MOL =  -34951.89488 KJ/MOL


          TOTAL ENERGY            =       -369.35260 EV
          ELECTRONIC ENERGY       =       -465.44504 EV  POINT GROUP:     C2v 
          CORE-CORE REPULSION     =         96.09244 EV
          COSMO AREA              =         42.55 SQUARE ANGSTROMS
          COSMO VOLUME            =         25.27 CUBIC ANGSTROMS

          IONIZATION POTENTIAL    =         12.815152 EV
          HOMO LUMO ENERGIES (EV) =        -12.815  6.135
          NO. OF FILLED LEVELS    =          4
          MOLECULAR WEIGHT        =         18.0152

          MOLECULAR DIMENSIONS (Angstroms)

            Atom       Atom       Distance
            H     3    H     2     1.53000
            H     2    O     1     0.58822
            H     2    O     1     0.00000


          SCF CALCULATIONS        =          1
 
          WALL-CLOCK TIME         =          0.516 SECONDS
          COMPUTATION TIME        =          0.012 SECONDS




   ATOM   CHEMICAL          X               Y               Z
  NUMBER   SYMBOL      (ANGSTROMS)     (ANGSTROMS)     (ANGSTROMS)
 
     1       O         -1.05337998  *   0.46786368  *   0.01801106  *
     2       H         -0.07937449  *   0.42267280  *  -0.12878673  *
     3       H         -1.28294479  *   1.36686780  *  -0.15710307  *

                             CARTESIAN COORDINATES

   1    O       -1.053379979     0.467863677     0.018011057
   2    H       -0.079374493     0.422672804    -0.128786734
   3    H       -1.282944793     1.366867801    -0.157103065


           Empirical Formula: H2 O  =     3 atoms



      MOLECULAR POINT GROUP   :   C2v 


                EIGENVECTORS  


   Root No.       1         2         3         4         5         6

                 1 a1      1 b2      2 a1      1 b1      3 a1      2 b2  

               -40.756   -19.701   -14.703   -12.815     6.135     7.941
  
  S   O    1    0.8325    0.0147   -0.3958   -0.0000   -0.3801   -0.0747
  Px  O    1    0.0990    0.6043    0.5200    0.1554   -0.3850    0.4269
  Py  O    1    0.1355   -0.4935    0.6321    0.2270   -0.2923   -0.4491
  Pz  O    1   -0.0480    0.0188   -0.2333    0.9614    0.1312    0.0370
  S   H    2    0.3612    0.4485    0.2492    0.0000    0.6370   -0.4478
  S   H    3    0.3821   -0.4354    0.2386    0.0000    0.4460    0.6393


              NET ATOMIC CHARGES AND DIPOLE CONTRIBUTIONS

  ATOM NO.   TYPE          CHARGE      No. of ELECS.   s-Pop       p-Pop       
    1          O          -0.427612        6.4276     1.69988     4.72773
    2          H           0.212507        0.7875     0.78749
    3          H           0.215105        0.7849     0.78489
 DIPOLE           X         Y         Z       TOTAL
 POINT-CHG.     0.757     0.883    -0.331     1.209
 HYBRID         0.738     0.933    -0.340     1.237
 SUM            1.495     1.816    -0.670     2.446


          ATOMIC ORBITAL ELECTRON POPULATIONS

     Atom    s        px        py        pz   
    1  O   1.69988   1.33907   1.42584   1.96282
    2  H   0.78749
    3  H   0.78489

 **********************
 *                    *
 * JOB ENDED NORMALLY *
 *                    *
 **********************



 TOTAL JOB TIME:             1.04 SECONDS

 == MOPAC DONE ==


          MOPAC Job: "./h2oTraj/h2o_42.mop" ended normally on Jun  1, 2023, at 14:01.

rm: cannot remove ‘./h2oTraj/h2o_42.cim’: No such file or directory
rm: cannot remove ‘./h2oTraj/h2o_42.end’: No such file or directory
rm: cannot remove ‘./h2oTraj/h2o_42.log’: No such file or directory
rm: cannot remove ‘./h2oTraj/h2o_42.temp’: No such file or directory
rm: cannot remove ‘./h2oTraj/h2o_42.ple’: No such file or directory
rm: cannot remove ‘./h2oTraj/h2o_42.sts’: No such file or directory
