 *******************************************************************************
 ** Site#:    0         For non-commercial use only    Version 20.173L 64BITS **
 *******************************************************************************
 ** Cite this program as: MOPAC2016, Version: 20.173L, James J. P. Stewart,   **
 ** Stewart Computational Chemistry, web-site: HTTP://OpenMOPAC.net.          **
 *******************************************************************************
 **                                                                           **
 **                                MOPAC2016                                  **
 **                                                                           **
 *******************************************************************************

                              INDO CALCULATION RESULTS

 *******************************************************************************
 *  CALCULATION DONE:                                Thu Jun  1 14:00:56 2023  *
 *  INDO       - The INDO Hamiltonian to be used
 *
 *
 *
 *                 CHARGE ON SYSTEM = 0
 *
 *
 *
 *  C.I.=(N,M) - 2 DOUBLY FILLED LEVELS USED IN A C.I. INVOLVING 4 M.O.'S
 *  T=         - A TIME OF 172800.0 SECONDS REQUESTED
 *  DUMP=N     - RESTART FILE WRITTEN EVERY 7200.0 SECONDS REQUESTED
 *  RELSCF     - DEFAULT SCF CRITERION MULTIPLIED BY 0.0000
 *              (DEFAULT SCF CRITERION = 0.00010)
 *  ALLVEC     - PRINT ALL EIGENVECTORS
 **********
 *  WARNING: Specified print options may not behave as expected with INDO
 **********
 *******************************************************************************
INDO C.I.=(4,2) AllVEC CHARGE=0 RELSCF=0.000001


   ATOM   CHEMICAL          X               Y               Z
  NUMBER   SYMBOL      (ANGSTROMS)     (ANGSTROMS)     (ANGSTROMS)
 
     1       O         -1.05194119  *   0.46634237  *   0.01090054  *
     2       H         -0.07387399  *   0.40736970  *  -0.08329283  *
     3       H         -1.31128327  *   1.40631859  *  -0.08973157  *
 


          CARTESIAN COORDINATES 

    NO.       ATOM           X           Y           Z

     1         O         -1.0519      0.4663      0.0109
     2         H         -0.0739      0.4074     -0.0833
     3         H         -1.3113      1.4063     -0.0897

           Empirical Formula: H2 O  =     3 atoms



      MOLECULAR POINT GROUP   :   C2v 


      RHF CALCULATION, NO. OF DOUBLY OCCUPIED LEVELS = 4

 WARNING: INDO only performs single-point calculations
  SCF CRITERION =    0.1000E-09

 Summary of symmetry occupancy in each shell:

 SHELL     
    1    4
    v    2
 TOTAL   6




    ROOT NO.    1           2           3           4           5           6

           -40.25153   -19.80372   -14.53403   -12.78348     5.81164     7.78936
  
  
  S  O   1   0.83893     0.00153    -0.38355    -0.00000    -0.38606    -0.00660
 PX  O   1   0.10308     0.60268     0.53202     0.10300    -0.31048     0.48591
 PY  O   1   0.12865    -0.48843     0.65587     0.13394    -0.36709    -0.40253
 PZ  O   1  -0.02825     0.00339    -0.14472     0.98562     0.08233     0.00392
  
  S  H   2   0.36517     0.44683     0.24421     0.00000     0.56192    -0.54001
  
  S  H   3   0.36725    -0.44559     0.24312     0.00000     0.54524     0.55695


 Reference determinate nber   1 is ALPHA 1 -   4
 SINGLE excitations FROM orbs   3 to   4 INTO orbs   5 to   6
 

 CI excitations=    5:        =  5
 The lowest    5 spin-adapted configurations of multiplicity=  1
     sym   eV   cm**-1 -dets- dipole oscilator X FRAG ....Excitations named from first reference determinate
                       tot  #  Debye  strength
 
   1      0.000      0.  1  1  2.4049 0.000000 0  0 (     )->       )
   2     10.697  86275.  1  1  0.1323 0.031445 1  1 (   4 )->   5   )
   3     11.792  95111.  1  1  0.7421 0.000010 1  1 (   4 )->   6   )
   4     13.281 107118.  1  1  0.6371 0.026848 1  1 (   3 )->   5   )
   5     14.393 116089.  1  1  0.0831 0.217352 1  1 (   3 )->   6   )

 Depression of ground-state after CI=          0. cm**-1 Energy=  -463.6707473 eV
 Dipole moment=  1.493370  1.840810 -0.406203 tot=  2.404940 Debyes


  CI trans.  energy frequency wavelength oscillator ---------polarization---------    dipole   ------components----- 
 st.  symm.    eV      cm-1       nm      strength       x          y         z       moment     x       y       z 

   2     10.6966488    86275.    115.91  0.031430   0.102996   0.133936   0.985623  0.174169  -0.049   0.166  -0.017
   3     11.7923056    95112.    105.14  0.000026   0.103012   0.133929   0.985622  0.749922   0.563   0.479  -0.124
   4     13.2808060   107117.     93.36  0.026903  -0.672793  -0.720455   0.168209  0.642855  -0.486  -0.407   0.106
   5     14.3931548   116089.     86.14  0.217293  -0.774059   0.633093  -0.005142  0.119530   0.097  -0.070  -0.001
 
 Polarizability (au  ) xx=    1.56 xy=   -0.97 yy=    1.12 xz=    0.03 yz=    0.03 zz=    0.60
 Polarizability (A**3) xx=    0.23 xy=   -0.14 yy=    0.17 xz=    0.00 yz=    0.00 zz=    0.09
 ***********************************
 ***********************************
 CI Matrix
  1.0000000000  0.0000000000  0.0000000000  0.0000000000  0.0000000000 
  0.0000000000 -0.9999475320  0.0102436947  0.0000001037 -0.0000000088 
  0.0000000000 -0.0102436947 -0.9999475320 -0.0000000771  0.0000000973 
  0.0000000000 -0.0000001029  0.0000000788 -0.9999773525  0.0067301170 
  0.0000000000 -0.0000000071  0.0000000968  0.0067301170  0.9999773525 
 ***********************************
 ***********************************
 
 
 Major CI contributions to CI states
 
State    1  0.0000     CI coeff  CI percent
    Config       1   1.00000000  1.00000000
 Total coeff printed             1.00000000
  
State    2 10.6966     CI coeff  CI percent
    Config       2  -0.99994753  0.99989507
 Total coeff printed             0.99989507
  
State    3 11.7923     CI coeff  CI percent
    Config       3  -0.99994753  0.99989507
 Total coeff printed             0.99989507
  
State    4 13.2808     CI coeff  CI percent
    Config       4  -0.99997735  0.99995471
 Total coeff printed             0.99995471
  
State    5 14.3932     CI coeff  CI percent
    Config       5   0.99997735  0.99995471
 Total coeff printed             0.99995471
  

 -------------------------------------------------------------------------------
 INDO C.I.=(4,2) AllVEC CHARGE=0 RELSCF=0.000001




     1SCF WAS SPECIFIED, SO BFGS WAS NOT USED                 
     SCF FIELD WAS ACHIEVED                                   


                              INDO CALCULATION
                                                       MOPAC2016 (Version: 20.173L)
                                                       Thu Jun  1 14:00:56 2023




          FINAL HEAT OF FORMATION =      -8331.19409 KCAL/MOL =  -34857.71606 KJ/MOL


          TOTAL ENERGY            =       -368.37651 EV
          ELECTRONIC ENERGY       =       -463.67075 EV  POINT GROUP:     C2v 
          CORE-CORE REPULSION     =         95.29424 EV
          COSMO AREA              =         42.85 SQUARE ANGSTROMS
          COSMO VOLUME            =         25.47 CUBIC ANGSTROMS

          IONIZATION POTENTIAL    =         12.783476 EV
          HOMO LUMO ENERGIES (EV) =        -12.783  5.812
          NO. OF FILLED LEVELS    =          4
          MOLECULAR WEIGHT        =         18.0152

          MOLECULAR DIMENSIONS (Angstroms)

            Atom       Atom       Distance
            H     3    H     2     1.59032
            O     1    H     3     0.57677
            H     2    H     3     0.00000


          SCF CALCULATIONS        =          1
 
          WALL-CLOCK TIME         =          0.078 SECONDS
          COMPUTATION TIME        =          0.010 SECONDS




   ATOM   CHEMICAL          X               Y               Z
  NUMBER   SYMBOL      (ANGSTROMS)     (ANGSTROMS)     (ANGSTROMS)
 
     1       O         -1.05194119  *   0.46634237  *   0.01090054  *
     2       H         -0.07387399  *   0.40736970  *  -0.08329283  *
     3       H         -1.31128327  *   1.40631859  *  -0.08973157  *

                             CARTESIAN COORDINATES

   1    O       -1.051941187     0.466342373     0.010900538
   2    H       -0.073873991     0.407369701    -0.083292834
   3    H       -1.311283270     1.406318588    -0.089731571


           Empirical Formula: H2 O  =     3 atoms



      MOLECULAR POINT GROUP   :   C2v 


                EIGENVECTORS  


   Root No.       1         2         3         4         5         6

                 1 a1      1 b2      2 a1      1 b1      3 a1      2 b2  

               -40.252   -19.804   -14.534   -12.783     5.812     7.789
  
  S   O    1    0.8389    0.0015   -0.3835   -0.0000   -0.3861   -0.0066
  Px  O    1    0.1031    0.6027    0.5320    0.1030   -0.3105    0.4859
  Py  O    1    0.1286   -0.4884    0.6559    0.1339   -0.3671   -0.4025
  Pz  O    1   -0.0283    0.0034   -0.1447    0.9856    0.0823    0.0039
  S   H    2    0.3652    0.4468    0.2442    0.0000    0.5619   -0.5400
  S   H    3    0.3673   -0.4456    0.2431    0.0000    0.5452    0.5569


              NET ATOMIC CHARGES AND DIPOLE CONTRIBUTIONS

  ATOM NO.   TYPE          CHARGE      No. of ELECS.   s-Pop       p-Pop       
    1          O          -0.429665        6.4297     1.70183     4.72784
    2          H           0.214722        0.7853     0.78528
    3          H           0.214943        0.7851     0.78506
 DIPOLE           X         Y         Z       TOTAL
 POINT-CHG.     0.741     0.910    -0.201     1.190
 HYBRID         0.752     0.931    -0.205     1.215
 SUM            1.493     1.841    -0.406     2.405


          ATOMIC ORBITAL ELECTRON POPULATIONS

     Atom    s        px        py        pz   
    1  O   1.70183   1.33499   1.40643   1.98641
    2  H   0.78528
    3  H   0.78506

 **********************
 *                    *
 * JOB ENDED NORMALLY *
 *                    *
 **********************



 TOTAL JOB TIME:             0.16 SECONDS

 == MOPAC DONE ==


          MOPAC Job: "./h2oTraj/h2o_17.mop" ended normally on Jun  1, 2023, at 14:00.

rm: cannot remove ‘./h2oTraj/h2o_17.cim’: No such file or directory
rm: cannot remove ‘./h2oTraj/h2o_17.end’: No such file or directory
rm: cannot remove ‘./h2oTraj/h2o_17.log’: No such file or directory
rm: cannot remove ‘./h2oTraj/h2o_17.temp’: No such file or directory
rm: cannot remove ‘./h2oTraj/h2o_17.ple’: No such file or directory
rm: cannot remove ‘./h2oTraj/h2o_17.sts’: No such file or directory
