 *******************************************************************************
 ** Site#:    0         For non-commercial use only    Version 20.173L 64BITS **
 *******************************************************************************
 ** Cite this program as: MOPAC2016, Version: 20.173L, James J. P. Stewart,   **
 ** Stewart Computational Chemistry, web-site: HTTP://OpenMOPAC.net.          **
 *******************************************************************************
 **                                                                           **
 **                                MOPAC2016                                  **
 **                                                                           **
 *******************************************************************************

                              INDO CALCULATION RESULTS

 *******************************************************************************
 *  CALCULATION DONE:                                Thu Jun  1 14:01:02 2023  *
 *  INDO       - The INDO Hamiltonian to be used
 *
 *
 *
 *                 CHARGE ON SYSTEM = 0
 *
 *
 *
 *  C.I.=(N,M) - 2 DOUBLY FILLED LEVELS USED IN A C.I. INVOLVING 4 M.O.'S
 *  T=         - A TIME OF 172800.0 SECONDS REQUESTED
 *  DUMP=N     - RESTART FILE WRITTEN EVERY 7200.0 SECONDS REQUESTED
 *  RELSCF     - DEFAULT SCF CRITERION MULTIPLIED BY 0.0000
 *              (DEFAULT SCF CRITERION = 0.00010)
 *  ALLVEC     - PRINT ALL EIGENVECTORS
 **********
 *  WARNING: Specified print options may not behave as expected with INDO
 **********
 *******************************************************************************
INDO C.I.=(4,2) AllVEC CHARGE=0 RELSCF=0.000001


   ATOM   CHEMICAL          X               Y               Z
  NUMBER   SYMBOL      (ANGSTROMS)     (ANGSTROMS)     (ANGSTROMS)
 
     1       O         -1.05375148  *   0.47014912  *   0.03190337  *
     2       H         -0.10401336  *   0.36346859  *  -0.21190535  *
     3       H         -1.25240901  *   1.38979520  *  -0.29449735  *
 


          CARTESIAN COORDINATES 

    NO.       ATOM           X           Y           Z

     1         O         -1.0538      0.4701      0.0319
     2         H         -0.1040      0.3635     -0.2119
     3         H         -1.2524      1.3898     -0.2945

           Empirical Formula: H2 O  =     3 atoms



      MOLECULAR POINT GROUP   :   C2v 


      RHF CALCULATION, NO. OF DOUBLY OCCUPIED LEVELS = 4

 WARNING: INDO only performs single-point calculations
  SCF CRITERION =    0.1000E-09

 Summary of symmetry occupancy in each shell:

 SHELL     
    1    4
    v    2
 TOTAL   6




    ROOT NO.    1           2           3           4           5           6

           -40.24388   -19.32061   -14.84735   -12.82099     5.89496     7.40079
  
  
  S  O   1   0.83601    -0.00359    -0.40162    -0.00000    -0.37338    -0.01914
 PX  O   1   0.10852     0.58500     0.51105     0.26979    -0.28780    -0.47876
 PY  O   1   0.11273    -0.51793     0.54653     0.37331    -0.35084     0.39736
 PZ  O   1  -0.08040     0.04002    -0.38519     0.88761     0.23504    -0.02160
  
  S  H   2   0.36990     0.43907     0.25398     0.00000     0.52115     0.57818
  
  S  H   3   0.36513    -0.44173     0.25681     0.00000     0.57256    -0.52704


 Reference determinate nber   1 is ALPHA 1 -   4
 SINGLE excitations FROM orbs   3 to   4 INTO orbs   5 to   6
 

 CI excitations=    5:        =  5
 The lowest    5 spin-adapted configurations of multiplicity=  1
     sym   eV   cm**-1 -dets- dipole oscilator X FRAG ....Excitations named from first reference determinate
                       tot  #  Debye  strength
 
   1      0.000      0.  1  1  2.4962 0.000000 0  0 (     )->       )
   2     10.735  86585.  1  1  0.2696 0.029519 1  1 (   4 )->   5   )
   3     11.494  92703.  1  1  0.7065 0.000083 1  1 (   4 )->   6   )
   4     13.720 110660.  1  1  0.6594 0.045877 1  1 (   3 )->   5   )
   5     14.433 116413.  1  1  0.2466 0.229579 1  1 (   3 )->   6   )

 Depression of ground-state after CI=          0. cm**-1 Energy=  -462.9682936 eV
 Dipole moment=  1.516729  1.620234 -1.142450 tot=  2.496160 Debyes


  CI trans.  energy frequency wavelength oscillator ---------polarization---------    dipole   ------components----- 
 st.  symm.    eV      cm-1       nm      strength       x          y         z       moment     x       y       z 

   2     10.7339428    86575.    115.51  0.029352   0.269792   0.373309   0.887610  0.467189   0.398  -0.245  -0.018
   3     11.4948437    92712.    107.86  0.000259   0.269789   0.373315   0.887609  0.796254   0.074   0.723  -0.326
   4     13.7193847   110655.     90.37  0.046707  -0.458959  -0.760496   0.459350  0.735315  -0.063  -0.668   0.300
   5     14.4340203   116419.     85.90  0.228714   0.763510  -0.644615   0.039039  0.409823  -0.327   0.247  -0.005
 
 Polarizability (au  ) xx=    1.58 xy=   -0.95 yy=    1.41 xz=    0.09 yz=   -0.06 zz=    0.57
 Polarizability (A**3) xx=    0.23 xy=   -0.14 yy=    0.21 xz=    0.01 yz=   -0.01 zz=    0.08
 ***********************************
 ***********************************
 CI Matrix
  1.0000000000  0.0000000000  0.0000000000  0.0000000000  0.0000000000 
  0.0000000000 -0.9992300862  0.0392330834  0.0000001145 -0.0000000142 
  0.0000000000 -0.0392330834 -0.9992300862 -0.0000000663  0.0000000969 
  0.0000000000 -0.0000001121  0.0000000738 -0.9995015700  0.0315691541 
  0.0000000000 -0.0000000068  0.0000000951  0.0315691541  0.9995015700 
 ***********************************
 ***********************************
 
 
 Major CI contributions to CI states
 
State    1  0.0000     CI coeff  CI percent
    Config       1   1.00000000  1.00000000
 Total coeff printed             1.00000000
  
State    2 10.7339     CI coeff  CI percent
    Config       2  -0.99923009  0.99846077
 Total coeff printed             0.99846077
  
State    3 11.4948     CI coeff  CI percent
    Config       3  -0.99923009  0.99846077
 Total coeff printed             0.99846077
  
State    4 13.7194     CI coeff  CI percent
    Config       4  -0.99950157  0.99900339
 Total coeff printed             0.99900339
  
State    5 14.4340     CI coeff  CI percent
    Config       5   0.99950157  0.99900339
 Total coeff printed             0.99900339
  

 -------------------------------------------------------------------------------
 INDO C.I.=(4,2) AllVEC CHARGE=0 RELSCF=0.000001




     1SCF WAS SPECIFIED, SO BFGS WAS NOT USED                 
     SCF FIELD WAS ACHIEVED                                   


                              INDO CALCULATION
                                                       MOPAC2016 (Version: 20.173L)
                                                       Thu Jun  1 14:01:02 2023




          FINAL HEAT OF FORMATION =      -8320.50591 KCAL/MOL =  -34812.99674 KJ/MOL


          TOTAL ENERGY            =       -367.91302 EV
          ELECTRONIC ENERGY       =       -462.96829 EV  POINT GROUP:     C2v 
          CORE-CORE REPULSION     =         95.05527 EV
          COSMO AREA              =         43.19 SQUARE ANGSTROMS
          COSMO VOLUME            =         25.73 CUBIC ANGSTROMS

          IONIZATION POTENTIAL    =         12.820991 EV
          HOMO LUMO ENERGIES (EV) =        -12.821  5.895
          NO. OF FILLED LEVELS    =          4
          MOLECULAR WEIGHT        =         18.0152

          MOLECULAR DIMENSIONS (Angstroms)

            Atom       Atom       Distance
            H     3    H     2     1.54239
            H     2    O     1     0.62250
            O     1    H     3     0.00000


          SCF CALCULATIONS        =          1
 
          WALL-CLOCK TIME         =          0.016 SECONDS
          COMPUTATION TIME        =          0.010 SECONDS




   ATOM   CHEMICAL          X               Y               Z
  NUMBER   SYMBOL      (ANGSTROMS)     (ANGSTROMS)     (ANGSTROMS)
 
     1       O         -1.05375148  *   0.47014912  *   0.03190337  *
     2       H         -0.10401336  *   0.36346859  *  -0.21190535  *
     3       H         -1.25240901  *   1.38979520  *  -0.29449735  *

                             CARTESIAN COORDINATES

   1    O       -1.053751484     0.470149117     0.031903370
   2    H       -0.104013364     0.363468590    -0.211905353
   3    H       -1.252409012     1.389795195    -0.294497348


           Empirical Formula: H2 O  =     3 atoms



      MOLECULAR POINT GROUP   :   C2v 


                EIGENVECTORS  


   Root No.       1         2         3         4         5         6

                 1 a1      1 b2      2 a1      1 b1      3 a1      2 b2  

               -40.244   -19.321   -14.847   -12.821     5.895     7.401
  
  S   O    1    0.8360   -0.0036   -0.4016   -0.0000   -0.3734   -0.0191
  Px  O    1    0.1085    0.5850    0.5111    0.2698   -0.2878   -0.4788
  Py  O    1    0.1127   -0.5179    0.5465    0.3733   -0.3508    0.3974
  Pz  O    1   -0.0804    0.0400   -0.3852    0.8876    0.2350   -0.0216
  S   H    2    0.3699    0.4391    0.2540    0.0000    0.5211    0.5782
  S   H    3    0.3651   -0.4417    0.2568    0.0000    0.5726   -0.5270


              NET ATOMIC CHARGES AND DIPOLE CONTRIBUTIONS

  ATOM NO.   TYPE          CHARGE      No. of ELECS.   s-Pop       p-Pop       
    1          O          -0.422964        6.4230     1.72044     4.70253
    2          H           0.211770        0.7882     0.78823
    3          H           0.211194        0.7888     0.78881
 DIPOLE           X         Y         Z       TOTAL
 POINT-CHG.     0.765     0.824    -0.579     1.265
 HYBRID         0.752     0.796    -0.563     1.232
 SUM            1.517     1.620    -1.143     2.496


          ATOMIC ORBITAL ELECTRON POPULATIONS

     Atom    s        px        py        pz   
    1  O   1.72044   1.37592   1.43802   1.88858
    2  H   0.78823
    3  H   0.78881

 **********************
 *                    *
 * JOB ENDED NORMALLY *
 *                    *
 **********************



 TOTAL JOB TIME:             0.04 SECONDS

 == MOPAC DONE ==


          MOPAC Job: "./h2oTraj/h2o_67.mop" ended normally on Jun  1, 2023, at 14:01.

rm: cannot remove ‘./h2oTraj/h2o_67.cim’: No such file or directory
rm: cannot remove ‘./h2oTraj/h2o_67.end’: No such file or directory
rm: cannot remove ‘./h2oTraj/h2o_67.log’: No such file or directory
rm: cannot remove ‘./h2oTraj/h2o_67.temp’: No such file or directory
rm: cannot remove ‘./h2oTraj/h2o_67.ple’: No such file or directory
rm: cannot remove ‘./h2oTraj/h2o_67.sts’: No such file or directory
