 *******************************************************************************
 ** Site#:    0         For non-commercial use only    Version 20.173L 64BITS **
 *******************************************************************************
 ** Cite this program as: MOPAC2016, Version: 20.173L, James J. P. Stewart,   **
 ** Stewart Computational Chemistry, web-site: HTTP://OpenMOPAC.net.          **
 *******************************************************************************
 **                                                                           **
 **                                MOPAC2016                                  **
 **                                                                           **
 *******************************************************************************

                              INDO CALCULATION RESULTS

 *******************************************************************************
 *  CALCULATION DONE:                                Thu Jun  1 14:01:01 2023  *
 *  INDO       - The INDO Hamiltonian to be used
 *
 *
 *
 *                 CHARGE ON SYSTEM = 0
 *
 *
 *
 *  C.I.=(N,M) - 2 DOUBLY FILLED LEVELS USED IN A C.I. INVOLVING 4 M.O.'S
 *  T=         - A TIME OF 172800.0 SECONDS REQUESTED
 *  DUMP=N     - RESTART FILE WRITTEN EVERY 7200.0 SECONDS REQUESTED
 *  RELSCF     - DEFAULT SCF CRITERION MULTIPLIED BY 0.0000
 *              (DEFAULT SCF CRITERION = 0.00010)
 *  ALLVEC     - PRINT ALL EIGENVECTORS
 **********
 *  WARNING: Specified print options may not behave as expected with INDO
 **********
 *******************************************************************************
INDO C.I.=(4,2) AllVEC CHARGE=0 RELSCF=0.000001


   ATOM   CHEMICAL          X               Y               Z
  NUMBER   SYMBOL      (ANGSTROMS)     (ANGSTROMS)     (ANGSTROMS)
 
     1       O         -1.04857830  *   0.46917344  *   0.02532484  *
     2       H         -0.10255403  *   0.42813600  *  -0.17477234  *
     3       H         -1.33598240  *   1.34061471  *  -0.22720923  *
 


          CARTESIAN COORDINATES 

    NO.       ATOM           X           Y           Z

     1         O         -1.0486      0.4692      0.0253
     2         H         -0.1026      0.4281     -0.1748
     3         H         -1.3360      1.3406     -0.2272

           Empirical Formula: H2 O  =     3 atoms



      MOLECULAR POINT GROUP   :   C2v 


      RHF CALCULATION, NO. OF DOUBLY OCCUPIED LEVELS = 4

 WARNING: INDO only performs single-point calculations
  SCF CRITERION =    0.1000E-09

 Summary of symmetry occupancy in each shell:

 SHELL     
    1    4
    v    2
 TOTAL   6




    ROOT NO.    1           2           3           4           5           6

           -40.82579   -19.84497   -14.63237   -12.80825     6.21104     8.03322
  
  
  S  O   1   0.83259     0.00563    -0.39193    -0.00000    -0.39030    -0.02852
 PX  O   1   0.09414     0.62270     0.48102     0.20886    -0.30851     0.48291
 PY  O   1   0.12775    -0.46735     0.62179     0.33512    -0.32959    -0.39712
 PZ  O   1  -0.06800     0.02891    -0.33616     0.91873     0.19036     0.03507
  
  S  H   2   0.36809     0.44585     0.24215     0.00000     0.58600    -0.51351
  
  S  H   3   0.37616    -0.44065     0.23823     0.00000     0.51403     0.58597


 Reference determinate nber   1 is ALPHA 1 -   4
 SINGLE excitations FROM orbs   3 to   4 INTO orbs   5 to   6
 

 CI excitations=    5:        =  5
 The lowest    5 spin-adapted configurations of multiplicity=  1
     sym   eV   cm**-1 -dets- dipole oscilator X FRAG ....Excitations named from first reference determinate
                       tot  #  Debye  strength
 
   1      0.000      0.  1  1  2.4227 0.000000 0  0 (     )->       )
   2     11.079  89358.  1  1  0.3836 0.033288 1  1 (   4 )->   5   )
   3     12.036  97080.  1  1  0.8133 0.000193 1  1 (   4 )->   6   )
   4     13.684 110369.  1  1  0.7274 0.027383 1  1 (   3 )->   5   )
   5     14.696 118528.  1  1  0.3448 0.208589 1  1 (   3 )->   6   )

 Depression of ground-state after CI=          0. cm**-1 Energy=  -465.9317127 eV
 Dipole moment=  1.363976  1.761163 -0.952493 tot=  2.422678 Debyes


  CI trans.  energy frequency wavelength oscillator ---------polarization---------    dipole   ------components----- 
 st.  symm.    eV      cm-1       nm      strength       x          y         z       moment     x       y       z 

   2     11.0765786    89339.    111.93  0.032954   0.208862   0.335122   0.918733  0.635642  -0.425   0.467  -0.074
   3     12.0387283    97099.    102.99  0.000548   0.208865   0.335118   0.918733  0.946373   0.889   0.181  -0.268
   4     13.6830075   110361.     90.61  0.028430  -0.767140  -0.526508   0.366451  0.816097  -0.768  -0.153   0.230
   5     14.6964855   118535.     84.36  0.207477  -0.786555   0.615819  -0.045816  0.506262   0.392  -0.319   0.027
 
 Polarizability (au  ) xx=    1.55 xy=   -0.85 yy=    0.97 xz=    0.10 yz=    0.06 zz=    0.56
 Polarizability (A**3) xx=    0.23 xy=   -0.13 yy=    0.14 xz=    0.01 yz=    0.01 zz=    0.08
 ***********************************
 ***********************************
 CI Matrix
  1.0000000000  0.0000000000  0.0000000000  0.0000000000  0.0000000000 
  0.0000000000 -0.9987437565  0.0501089693  0.0000001181 -0.0000000008 
  0.0000000000 -0.0501089693 -0.9987437565  0.0000000638  0.0000001237 
  0.0000000000 -0.0000001209 -0.0000000539 -0.9995170119  0.0310764053 
  0.0000000000  0.0000000091  0.0000001253  0.0310764053  0.9995170119 
 ***********************************
 ***********************************
 
 
 Major CI contributions to CI states
 
State    1  0.0000     CI coeff  CI percent
    Config       1   1.00000000  1.00000000
 Total coeff printed             1.00000000
  
State    2 11.0766     CI coeff  CI percent
    Config       2  -0.99874376  0.99748909
    Config       3   0.05010897  0.00251091
 Total coeff printed             1.00000000
  
State    3 12.0387     CI coeff  CI percent
    Config       2  -0.05010897  0.00251091
    Config       3  -0.99874376  0.99748909
 Total coeff printed             1.00000000
  
State    4 13.6830     CI coeff  CI percent
    Config       4  -0.99951701  0.99903426
 Total coeff printed             0.99903426
  
State    5 14.6965     CI coeff  CI percent
    Config       5   0.99951701  0.99903426
 Total coeff printed             0.99903426
  

 -------------------------------------------------------------------------------
 INDO C.I.=(4,2) AllVEC CHARGE=0 RELSCF=0.000001




     1SCF WAS SPECIFIED, SO BFGS WAS NOT USED                 
     SCF FIELD WAS ACHIEVED                                   


                              INDO CALCULATION
                                                       MOPAC2016 (Version: 20.173L)
                                                       Thu Jun  1 14:01:01 2023




          FINAL HEAT OF FORMATION =      -8360.47225 KCAL/MOL =  -34980.21590 KJ/MOL


          TOTAL ENERGY            =       -369.64613 EV
          ELECTRONIC ENERGY       =       -465.93171 EV  POINT GROUP:     C2v 
          CORE-CORE REPULSION     =         96.28558 EV
          COSMO AREA              =         42.41 SQUARE ANGSTROMS
          COSMO VOLUME            =         25.17 CUBIC ANGSTROMS

          IONIZATION POTENTIAL    =         12.808250 EV
          HOMO LUMO ENERGIES (EV) =        -12.808  6.211
          NO. OF FILLED LEVELS    =          4
          MOLECULAR WEIGHT        =         18.0152

          MOLECULAR DIMENSIONS (Angstroms)

            Atom       Atom       Distance
            H     3    H     2     1.53516
            H     2    O     1     0.57616
            O     1    H     3     0.00000


          SCF CALCULATIONS        =          1
 
          WALL-CLOCK TIME         =          0.066 SECONDS
          COMPUTATION TIME        =          0.010 SECONDS




   ATOM   CHEMICAL          X               Y               Z
  NUMBER   SYMBOL      (ANGSTROMS)     (ANGSTROMS)     (ANGSTROMS)
 
     1       O         -1.04857830  *   0.46917344  *   0.02532484  *
     2       H         -0.10255403  *   0.42813600  *  -0.17477234  *
     3       H         -1.33598240  *   1.34061471  *  -0.22720923  *

                             CARTESIAN COORDINATES

   1    O       -1.048578299     0.469173440     0.025324839
   2    H       -0.102554027     0.428136002    -0.174772337
   3    H       -1.335982398     1.340614710    -0.227209232


           Empirical Formula: H2 O  =     3 atoms



      MOLECULAR POINT GROUP   :   C2v 


                EIGENVECTORS  


   Root No.       1         2         3         4         5         6

                 1 a1      1 b2      2 a1      1 b1      3 a1      2 b2  

               -40.826   -19.845   -14.632   -12.808     6.211     8.033
  
  S   O    1    0.8326    0.0056   -0.3919   -0.0000   -0.3903   -0.0285
  Px  O    1    0.0941    0.6227    0.4810    0.2089   -0.3085    0.4829
  Py  O    1    0.1277   -0.4674    0.6218    0.3351   -0.3296   -0.3971
  Pz  O    1   -0.0680    0.0289   -0.3362    0.9187    0.1904    0.0351
  S   H    2    0.3681    0.4459    0.2422    0.0000    0.5860   -0.5135
  S   H    3    0.3762   -0.4406    0.2382    0.0000    0.5140    0.5860


              NET ATOMIC CHARGES AND DIPOLE CONTRIBUTIONS

  ATOM NO.   TYPE          CHARGE      No. of ELECS.   s-Pop       p-Pop       
    1          O          -0.429346        6.4293     1.69370     4.73564
    2          H           0.214178        0.7858     0.78582
    3          H           0.215168        0.7848     0.78483
 DIPOLE           X         Y         Z       TOTAL
 POINT-CHG.     0.676     0.858    -0.467     1.188
 HYBRID         0.688     0.903    -0.486     1.235
 SUM            1.364     1.761    -0.953     2.423


          ATOMIC ORBITAL ELECTRON POPULATIONS

     Atom    s        px        py        pz   
    1  O   1.69370   1.34324   1.46733   1.92507
    2  H   0.78582
    3  H   0.78483

 **********************
 *                    *
 * JOB ENDED NORMALLY *
 *                    *
 **********************



 TOTAL JOB TIME:             0.13 SECONDS

 == MOPAC DONE ==


          MOPAC Job: "./h2oTraj/h2o_52.mop" ended normally on Jun  1, 2023, at 14:01.

rm: cannot remove ‘./h2oTraj/h2o_52.cim’: No such file or directory
rm: cannot remove ‘./h2oTraj/h2o_52.end’: No such file or directory
rm: cannot remove ‘./h2oTraj/h2o_52.log’: No such file or directory
rm: cannot remove ‘./h2oTraj/h2o_52.temp’: No such file or directory
rm: cannot remove ‘./h2oTraj/h2o_52.ple’: No such file or directory
rm: cannot remove ‘./h2oTraj/h2o_52.sts’: No such file or directory
