 *******************************************************************************
 ** Site#:    0         For non-commercial use only    Version 20.173L 64BITS **
 *******************************************************************************
 ** Cite this program as: MOPAC2016, Version: 20.173L, James J. P. Stewart,   **
 ** Stewart Computational Chemistry, web-site: HTTP://OpenMOPAC.net.          **
 *******************************************************************************
 **                                                                           **
 **                                MOPAC2016                                  **
 **                                                                           **
 *******************************************************************************

                              INDO CALCULATION RESULTS

 *******************************************************************************
 *  CALCULATION DONE:                                Thu Jun  1 14:01:06 2023  *
 *  INDO       - The INDO Hamiltonian to be used
 *
 *
 *
 *                 CHARGE ON SYSTEM = 0
 *
 *
 *
 *  C.I.=(N,M) - 2 DOUBLY FILLED LEVELS USED IN A C.I. INVOLVING 4 M.O.'S
 *  T=         - A TIME OF 172800.0 SECONDS REQUESTED
 *  DUMP=N     - RESTART FILE WRITTEN EVERY 7200.0 SECONDS REQUESTED
 *  RELSCF     - DEFAULT SCF CRITERION MULTIPLIED BY 0.0000
 *              (DEFAULT SCF CRITERION = 0.00010)
 *  ALLVEC     - PRINT ALL EIGENVECTORS
 **********
 *  WARNING: Specified print options may not behave as expected with INDO
 **********
 *******************************************************************************
INDO C.I.=(4,2) AllVEC CHARGE=0 RELSCF=0.000001


   ATOM   CHEMICAL          X               Y               Z
  NUMBER   SYMBOL      (ANGSTROMS)     (ANGSTROMS)     (ANGSTROMS)
 
     1       O         -1.04910157  *   0.47119855  *   0.03299126  *
     2       H         -0.14380170  *   0.39478683  *  -0.23765932  *
     3       H         -1.28642878  *   1.34181922  *  -0.28601153  *
 


          CARTESIAN COORDINATES 

    NO.       ATOM           X           Y           Z

     1         O         -1.0491      0.4712      0.0330
     2         H         -0.1438      0.3948     -0.2377
     3         H         -1.2864      1.3418     -0.2860

           Empirical Formula: H2 O  =     3 atoms



      MOLECULAR POINT GROUP   :   C2v 


      RHF CALCULATION, NO. OF DOUBLY OCCUPIED LEVELS = 4

 WARNING: INDO only performs single-point calculations
  SCF CRITERION =    0.1000E-09

 Summary of symmetry occupancy in each shell:

 SHELL     
    1    4
    v    2
 TOTAL   6




    ROOT NO.    1           2           3           4           5           6

           -41.12013   -19.61891   -14.82814   -12.83494     6.46091     7.95795
  
  
  S  O   1   0.82782    -0.00307    -0.40505     0.00000    -0.38764    -0.01921
 PX  O   1   0.10287     0.60537     0.47779     0.29343    -0.26003    -0.49086
 PY  O   1   0.11751    -0.49774     0.56023     0.39840    -0.34931     0.37929
 PZ  O   1  -0.08861     0.02378    -0.41817     0.86901     0.24794    -0.00814
  
  S  H   2   0.37804     0.43739     0.24274    -0.00000     0.52155     0.57865
  
  S  H   3   0.37356    -0.44034     0.24496    -0.00000     0.57150    -0.52908


 Reference determinate nber   1 is ALPHA 1 -   4
 SINGLE excitations FROM orbs   3 to   4 INTO orbs   5 to   6
 

 CI excitations=    5:        =  5
 The lowest    5 spin-adapted configurations of multiplicity=  1
     sym   eV   cm**-1 -dets- dipole oscilator X FRAG ....Excitations named from first reference determinate
                       tot  #  Debye  strength
 
   1      0.000      0.  1  1  2.4769 0.000000 0  0 (     )->       )
   2     11.299  91133.  1  1  0.2758 0.033487 1  1 (   4 )->   5   )
   3     11.997  96763.  1  1  0.7485 0.000087 1  1 (   4 )->   6   )
   4     14.100 113725.  1  1  0.6727 0.034298 1  1 (   3 )->   5   )
   5     14.848 119759.  1  1  0.2356 0.210731 1  1 (   3 )->   6   )

 Depression of ground-state after CI=          0. cm**-1 Energy=  -466.7323669 eV
 Dipole moment=  1.397281  1.638965 -1.223190 tot=  2.476852 Debyes


  CI trans.  energy frequency wavelength oscillator ---------polarization---------    dipole   ------components----- 
 st.  symm.    eV      cm-1       nm      strength       x          y         z       moment     x       y       z 

   2     11.2976101    91122.    109.74  0.033269   0.293428   0.398400   0.869010  0.486122   0.437  -0.205  -0.054
   3     11.9984952    96775.    103.33  0.000315   0.293428   0.398400   0.869010  0.841490   0.054   0.756  -0.365
   4     14.0994749   113720.     87.94  0.034970  -0.405177  -0.771511   0.490512  0.734151  -0.062  -0.657   0.322
   5     14.8488247   119764.     83.50  0.210030   0.784520  -0.619804   0.019251  0.377823  -0.318   0.203   0.015
 
 Polarizability (au  ) xx=    1.42 xy=   -0.84 yy=    1.14 xz=    0.10 yz=    0.03 zz=    0.54
 Polarizability (A**3) xx=    0.21 xy=   -0.12 yy=    0.17 xz=    0.02 yz=    0.00 zz=    0.08
 ***********************************
 ***********************************
 CI Matrix
  1.0000000000  0.0000000000  0.0000000000  0.0000000000  0.0000000000 
  0.0000000000 -0.9990039959  0.0446208052 -0.0000000000  0.0000000000 
  0.0000000000 -0.0446208052 -0.9990039959 -0.0000000000 -0.0000000000 
  0.0000000000  0.0000000000  0.0000000000 -0.9995950604  0.0284554960 
  0.0000000000 -0.0000000000 -0.0000000000  0.0284554960  0.9995950604 
 ***********************************
 ***********************************
 
 
 Major CI contributions to CI states
 
State    1  0.0000     CI coeff  CI percent
    Config       1   1.00000000  1.00000000
 Total coeff printed             1.00000000
  
State    2 11.2976     CI coeff  CI percent
    Config       2  -0.99900400  0.99800898
    Config       3   0.04462081  0.00199102
 Total coeff printed             1.00000000
  
State    3 11.9985     CI coeff  CI percent
    Config       2  -0.04462081  0.00199102
    Config       3  -0.99900400  0.99800898
 Total coeff printed             1.00000000
  
State    4 14.0995     CI coeff  CI percent
    Config       4  -0.99959506  0.99919028
 Total coeff printed             0.99919028
  
State    5 14.8488     CI coeff  CI percent
    Config       5   0.99959506  0.99919028
 Total coeff printed             0.99919028
  

 -------------------------------------------------------------------------------
 INDO C.I.=(4,2) AllVEC CHARGE=0 RELSCF=0.000001




     1SCF WAS SPECIFIED, SO BFGS WAS NOT USED                 
     SCF FIELD WAS ACHIEVED                                   


                              INDO CALCULATION
                                                       MOPAC2016 (Version: 20.173L)
                                                       Thu Jun  1 14:01:06 2023




          FINAL HEAT OF FORMATION =      -8369.91758 KCAL/MOL =  -35019.73517 KJ/MOL


          TOTAL ENERGY            =       -370.05572 EV
          ELECTRONIC ENERGY       =       -466.73237 EV  POINT GROUP:     C2v 
          CORE-CORE REPULSION     =         96.67665 EV
          COSMO AREA              =         42.59 SQUARE ANGSTROMS
          COSMO VOLUME            =         25.29 CUBIC ANGSTROMS

          IONIZATION POTENTIAL    =         12.834943 EV
          HOMO LUMO ENERGIES (EV) =        -12.835  6.461
          NO. OF FILLED LEVELS    =          4
          MOLECULAR WEIGHT        =         18.0152

          MOLECULAR DIMENSIONS (Angstroms)

            Atom       Atom       Distance
            H     3    H     2     1.48486
            H     2    O     1     0.59676
            H     3    O     1     0.00000


          SCF CALCULATIONS        =          1
 
          WALL-CLOCK TIME         =          0.031 SECONDS
          COMPUTATION TIME        =          0.010 SECONDS




   ATOM   CHEMICAL          X               Y               Z
  NUMBER   SYMBOL      (ANGSTROMS)     (ANGSTROMS)     (ANGSTROMS)
 
     1       O         -1.04910157  *   0.47119855  *   0.03299126  *
     2       H         -0.14380170  *   0.39478683  *  -0.23765932  *
     3       H         -1.28642878  *   1.34181922  *  -0.28601153  *

                             CARTESIAN COORDINATES

   1    O       -1.049101574     0.471198554     0.032991264
   2    H       -0.143801698     0.394786831    -0.237659321
   3    H       -1.286428776     1.341819219    -0.286011528


           Empirical Formula: H2 O  =     3 atoms



      MOLECULAR POINT GROUP   :   C2v 


                EIGENVECTORS  


   Root No.       1         2         3         4         5         6

                 1 a1      1 b2      2 a1      1 b1      3 a1      2 b2  

               -41.120   -19.619   -14.828   -12.835     6.461     7.958
  
  S   O    1    0.8278   -0.0031   -0.4051    0.0000   -0.3876   -0.0192
  Px  O    1    0.1029    0.6054    0.4778    0.2934   -0.2600   -0.4909
  Py  O    1    0.1175   -0.4977    0.5602    0.3984   -0.3493    0.3793
  Pz  O    1   -0.0886    0.0238   -0.4182    0.8690    0.2479   -0.0081
  S   H    2    0.3780    0.4374    0.2427   -0.0000    0.5216    0.5786
  S   H    3    0.3736   -0.4403    0.2450   -0.0000    0.5715   -0.5291


              NET ATOMIC CHARGES AND DIPOLE CONTRIBUTIONS

  ATOM NO.   TYPE          CHARGE      No. of ELECS.   s-Pop       p-Pop       
    1          O          -0.426787        6.4268     1.69874     4.72804
    2          H           0.213702        0.7863     0.78630
    3          H           0.213084        0.7869     0.78692
 DIPOLE           X         Y         Z       TOTAL
 POINT-CHG.     0.686     0.813    -0.604     1.223
 HYBRID         0.711     0.826    -0.619     1.254
 SUM            1.397     1.639    -1.223     2.477


          ATOMIC ORBITAL ELECTRON POPULATIONS

     Atom    s        px        py        pz   
    1  O   1.69874   1.38289   1.46824   1.87691
    2  H   0.78630
    3  H   0.78692

 **********************
 *                    *
 * JOB ENDED NORMALLY *
 *                    *
 **********************



 TOTAL JOB TIME:             0.06 SECONDS

 == MOPAC DONE ==


          MOPAC Job: "./h2oTraj/h2o_95.mop" ended normally on Jun  1, 2023, at 14:01.

rm: cannot remove ‘./h2oTraj/h2o_95.cim’: No such file or directory
rm: cannot remove ‘./h2oTraj/h2o_95.end’: No such file or directory
rm: cannot remove ‘./h2oTraj/h2o_95.log’: No such file or directory
rm: cannot remove ‘./h2oTraj/h2o_95.temp’: No such file or directory
rm: cannot remove ‘./h2oTraj/h2o_95.ple’: No such file or directory
rm: cannot remove ‘./h2oTraj/h2o_95.sts’: No such file or directory
