 *******************************************************************************
 ** Site#:    0         For non-commercial use only    Version 20.173L 64BITS **
 *******************************************************************************
 ** Cite this program as: MOPAC2016, Version: 20.173L, James J. P. Stewart,   **
 ** Stewart Computational Chemistry, web-site: HTTP://OpenMOPAC.net.          **
 *******************************************************************************
 **                                                                           **
 **                                MOPAC2016                                  **
 **                                                                           **
 *******************************************************************************

                              INDO CALCULATION RESULTS

 *******************************************************************************
 *  CALCULATION DONE:                                Thu Jun  1 14:01:01 2023  *
 *  INDO       - The INDO Hamiltonian to be used
 *
 *
 *
 *                 CHARGE ON SYSTEM = 0
 *
 *
 *
 *  C.I.=(N,M) - 2 DOUBLY FILLED LEVELS USED IN A C.I. INVOLVING 4 M.O.'S
 *  T=         - A TIME OF 172800.0 SECONDS REQUESTED
 *  DUMP=N     - RESTART FILE WRITTEN EVERY 7200.0 SECONDS REQUESTED
 *  RELSCF     - DEFAULT SCF CRITERION MULTIPLIED BY 0.0000
 *              (DEFAULT SCF CRITERION = 0.00010)
 *  ALLVEC     - PRINT ALL EIGENVECTORS
 **********
 *  WARNING: Specified print options may not behave as expected with INDO
 **********
 *******************************************************************************
INDO C.I.=(4,2) AllVEC CHARGE=0 RELSCF=0.000001


   ATOM   CHEMICAL          X               Y               Z
  NUMBER   SYMBOL      (ANGSTROMS)     (ANGSTROMS)     (ANGSTROMS)
 
     1       O         -1.04840942  *   0.46506665  *   0.02503146  *
     2       H         -0.11494088  *   0.46680963  *  -0.17593887  *
     3       H         -1.32627611  *   1.36712819  *  -0.22138596  *
 


          CARTESIAN COORDINATES 

    NO.       ATOM           X           Y           Z

     1         O         -1.0484      0.4651      0.0250
     2         H         -0.1149      0.4668     -0.1759
     3         H         -1.3263      1.3671     -0.2214

           Empirical Formula: H2 O  =     3 atoms



      MOLECULAR POINT GROUP   :   C2v 


      RHF CALCULATION, NO. OF DOUBLY OCCUPIED LEVELS = 4

 WARNING: INDO only performs single-point calculations
  SCF CRITERION =    0.1000E-09

 Summary of symmetry occupancy in each shell:

 SHELL     
    1    4
    v    2
 TOTAL   6




    ROOT NO.    1           2           3           4           5           6

           -40.81082   -19.56530   -14.80498   -12.82703     6.24198     7.81356
  
  
  S  O   1   0.83096    -0.00723    -0.40216    -0.00000    -0.38213    -0.04123
 PX  O   1   0.10241     0.63252     0.47032     0.19920    -0.22747    -0.52613
 PY  O   1   0.12923    -0.46065     0.62954     0.31486    -0.40842     0.32990
 PZ  O   1  -0.06583     0.02052    -0.31456     0.92800     0.18740     0.00101
  
  S  H   2   0.37790     0.43680     0.24409     0.00000     0.49139     0.60445
  
  S  H   3   0.36767    -0.44323     0.24944     0.00000     0.59904    -0.49729


 Reference determinate nber   1 is ALPHA 1 -   4
 SINGLE excitations FROM orbs   3 to   4 INTO orbs   5 to   6
 

 CI excitations=    5:        =  5
 The lowest    5 spin-adapted configurations of multiplicity=  1
     sym   eV   cm**-1 -dets- dipole oscilator X FRAG ....Excitations named from first reference determinate
                       tot  #  Debye  strength
 
   1      0.000      0.  1  1  2.4747 0.000000 0  0 (     )->       )
   2     11.082  89379.  1  1  0.5388 0.031916 1  1 (   4 )->   5   )
   3     11.868  95720.  1  1  0.8550 0.000398 1  1 (   4 )->   6   )
   4     13.910 112194.  1  1  0.8071 0.038295 1  1 (   3 )->   5   )
   5     14.714 118678.  1  1  0.5033 0.214350 1  1 (   3 )->   6   )

 Depression of ground-state after CI=          0. cm**-1 Energy=  -465.4785420 eV
 Dipole moment=  1.375035  1.840518 -0.919643 tot=  2.474666 Debyes


  CI trans.  energy frequency wavelength oscillator ---------polarization---------    dipole   ------components----- 
 st.  symm.    eV      cm-1       nm      strength       x          y         z       moment     x       y       z 

   2     11.0759601    89334.    111.94  0.031107   0.199204   0.314864   0.927997  0.949070   0.832  -0.456  -0.024
   3     11.8732492    95764.    104.42  0.001248   0.199200   0.314865   0.927997  1.136814  -0.344   1.046  -0.281
   4     13.9075776   112172.     89.15  0.041222  -0.208954  -0.911550   0.354138  1.009018   0.300  -0.930   0.251
   5     14.7167796   118699.     84.25  0.211283   0.833229  -0.552860   0.008721  0.789474  -0.664   0.427  -0.003
 
 Polarizability (au  ) xx=    1.55 xy=   -0.87 yy=    1.11 xz=    0.09 yz=    0.01 zz=    0.56
 Polarizability (A**3) xx=    0.23 xy=   -0.13 yy=    0.17 xz=    0.01 yz=    0.00 zz=    0.08
 ***********************************
 ***********************************
 CI Matrix
  1.0000000000  0.0000000000  0.0000000000  0.0000000000  0.0000000000 
  0.0000000000 -0.9965058482  0.0835230181  0.0000001266 -0.0000000011 
  0.0000000000 -0.0835230181 -0.9965058482  0.0000001032  0.0000001415 
  0.0000000000 -0.0000001339 -0.0000000841 -0.9983589666  0.0572658174 
  0.0000000000  0.0000000184  0.0000001461  0.0572658174  0.9983589666 
 ***********************************
 ***********************************
 
 
 Major CI contributions to CI states
 
State    1  0.0000     CI coeff  CI percent
    Config       1   1.00000000  1.00000000
 Total coeff printed             1.00000000
  
State    2 11.0760     CI coeff  CI percent
    Config       2  -0.99650585  0.99302391
    Config       3   0.08352302  0.00697609
 Total coeff printed             1.00000000
  
State    3 11.8732     CI coeff  CI percent
    Config       2  -0.08352302  0.00697609
    Config       3  -0.99650585  0.99302391
 Total coeff printed             1.00000000
  
State    4 13.9076     CI coeff  CI percent
    Config       4  -0.99835897  0.99672063
    Config       5   0.05726582  0.00327937
 Total coeff printed             1.00000000
  
State    5 14.7168     CI coeff  CI percent
    Config       4   0.05726582  0.00327937
    Config       5   0.99835897  0.99672063
 Total coeff printed             1.00000000
  

 -------------------------------------------------------------------------------
 INDO C.I.=(4,2) AllVEC CHARGE=0 RELSCF=0.000001




     1SCF WAS SPECIFIED, SO BFGS WAS NOT USED                 
     SCF FIELD WAS ACHIEVED                                   


                              INDO CALCULATION
                                                       MOPAC2016 (Version: 20.173L)
                                                       Thu Jun  1 14:01:01 2023




          FINAL HEAT OF FORMATION =      -8353.68174 KCAL/MOL =  -34951.80442 KJ/MOL


          TOTAL ENERGY            =       -369.35166 EV
          ELECTRONIC ENERGY       =       -465.47854 EV  POINT GROUP:     C2v 
          CORE-CORE REPULSION     =         96.12688 EV
          COSMO AREA              =         42.72 SQUARE ANGSTROMS
          COSMO VOLUME            =         25.41 CUBIC ANGSTROMS

          IONIZATION POTENTIAL    =         12.827029 EV
          HOMO LUMO ENERGIES (EV) =        -12.827  6.242
          NO. OF FILLED LEVELS    =          4
          MOLECULAR WEIGHT        =         18.0152

          MOLECULAR DIMENSIONS (Angstroms)

            Atom       Atom       Distance
            H     3    H     2     1.50996
            O     1    H     3     0.60128
            O     1    H     2     0.00000


          SCF CALCULATIONS        =          1
 
          WALL-CLOCK TIME         =          0.059 SECONDS
          COMPUTATION TIME        =          0.010 SECONDS




   ATOM   CHEMICAL          X               Y               Z
  NUMBER   SYMBOL      (ANGSTROMS)     (ANGSTROMS)     (ANGSTROMS)
 
     1       O         -1.04840942  *   0.46506665  *   0.02503146  *
     2       H         -0.11494088  *   0.46680963  *  -0.17593887  *
     3       H         -1.32627611  *   1.36712819  *  -0.22138596  *

                             CARTESIAN COORDINATES

   1    O       -1.048409424     0.465066652     0.025031464
   2    H       -0.114940881     0.466809628    -0.175938870
   3    H       -1.326276109     1.367128190    -0.221385959


           Empirical Formula: H2 O  =     3 atoms



      MOLECULAR POINT GROUP   :   C2v 


                EIGENVECTORS  


   Root No.       1         2         3         4         5         6

                 1 a1      1 b2      2 a1      1 b1      3 a1      2 b2  

               -40.811   -19.565   -14.805   -12.827     6.242     7.814
  
  S   O    1    0.8310   -0.0072   -0.4022   -0.0000   -0.3821   -0.0412
  Px  O    1    0.1024    0.6325    0.4703    0.1992   -0.2275   -0.5261
  Py  O    1    0.1292   -0.4607    0.6295    0.3149   -0.4084    0.3299
  Pz  O    1   -0.0658    0.0205   -0.3146    0.9280    0.1874    0.0010
  S   H    2    0.3779    0.4368    0.2441    0.0000    0.4914    0.6044
  S   H    3    0.3677   -0.4432    0.2494    0.0000    0.5990   -0.4973


              NET ATOMIC CHARGES AND DIPOLE CONTRIBUTIONS

  ATOM NO.   TYPE          CHARGE      No. of ELECS.   s-Pop       p-Pop       
    1          O          -0.425933        6.4259     1.70455     4.72138
    2          H           0.213633        0.7864     0.78637
    3          H           0.212300        0.7877     0.78770
 DIPOLE           X         Y         Z       TOTAL
 POINT-CHG.     0.675     0.922    -0.457     1.230
 HYBRID         0.701     0.919    -0.462     1.245
 SUM            1.375     1.841    -0.920     2.475


          ATOMIC ORBITAL ELECTRON POPULATIONS

     Atom    s        px        py        pz   
    1  O   1.70455   1.34290   1.44872   1.92976
    2  H   0.78637
    3  H   0.78770

 **********************
 *                    *
 * JOB ENDED NORMALLY *
 *                    *
 **********************



 TOTAL JOB TIME:             0.12 SECONDS

 == MOPAC DONE ==


          MOPAC Job: "./h2oTraj/h2o_51.mop" ended normally on Jun  1, 2023, at 14:01.

rm: cannot remove ‘./h2oTraj/h2o_51.cim’: No such file or directory
rm: cannot remove ‘./h2oTraj/h2o_51.end’: No such file or directory
rm: cannot remove ‘./h2oTraj/h2o_51.log’: No such file or directory
rm: cannot remove ‘./h2oTraj/h2o_51.temp’: No such file or directory
rm: cannot remove ‘./h2oTraj/h2o_51.ple’: No such file or directory
rm: cannot remove ‘./h2oTraj/h2o_51.sts’: No such file or directory
