 *******************************************************************************
 ** Site#:    0         For non-commercial use only    Version 20.173L 64BITS **
 *******************************************************************************
 ** Cite this program as: MOPAC2016, Version: 20.173L, James J. P. Stewart,   **
 ** Stewart Computational Chemistry, web-site: HTTP://OpenMOPAC.net.          **
 *******************************************************************************
 **                                                                           **
 **                                MOPAC2016                                  **
 **                                                                           **
 *******************************************************************************

                              INDO CALCULATION RESULTS

 *******************************************************************************
 *  CALCULATION DONE:                                Thu Jun  1 14:00:57 2023  *
 *  INDO       - The INDO Hamiltonian to be used
 *
 *
 *
 *                 CHARGE ON SYSTEM = 0
 *
 *
 *
 *  C.I.=(N,M) - 2 DOUBLY FILLED LEVELS USED IN A C.I. INVOLVING 4 M.O.'S
 *  T=         - A TIME OF 172800.0 SECONDS REQUESTED
 *  DUMP=N     - RESTART FILE WRITTEN EVERY 7200.0 SECONDS REQUESTED
 *  RELSCF     - DEFAULT SCF CRITERION MULTIPLIED BY 0.0000
 *              (DEFAULT SCF CRITERION = 0.00010)
 *  ALLVEC     - PRINT ALL EIGENVECTORS
 **********
 *  WARNING: Specified print options may not behave as expected with INDO
 **********
 *******************************************************************************
INDO C.I.=(4,2) AllVEC CHARGE=0 RELSCF=0.000001


   ATOM   CHEMICAL          X               Y               Z
  NUMBER   SYMBOL      (ANGSTROMS)     (ANGSTROMS)     (ANGSTROMS)
 
     1       O         -1.05225125  *   0.46352200  *   0.01697053  *
     2       H         -0.11343180  *   0.45598784  *  -0.12711293  *
     3       H         -1.26680383  *   1.40246822  *  -0.14226052  *
 


          CARTESIAN COORDINATES 

    NO.       ATOM           X           Y           Z

     1         O         -1.0523      0.4635      0.0170
     2         H         -0.1134      0.4560     -0.1271
     3         H         -1.2668      1.4025     -0.1423

           Empirical Formula: H2 O  =     3 atoms



      MOLECULAR POINT GROUP   :   C2v 


      RHF CALCULATION, NO. OF DOUBLY OCCUPIED LEVELS = 4

 WARNING: INDO only performs single-point calculations
  SCF CRITERION =    0.1000E-09

 Summary of symmetry occupancy in each shell:

 SHELL     
    1    4
    v    2
 TOTAL   6




    ROOT NO.    1           2           3           4           5           6

           -40.90834   -19.47602   -14.87549   -12.83535     6.31140     7.79315
  
  
  S  O   1   0.82927    -0.00911    -0.40679     0.00000    -0.37903    -0.05557
 PX  O   1   0.11389     0.61304     0.51222     0.15023    -0.23924    -0.51868
 PY  O   1   0.13203    -0.48965     0.63632     0.19857    -0.43144     0.33516
 PZ  O   1  -0.04474     0.00530    -0.20992     0.96850     0.12557     0.01174
  
  S  H   2   0.38052     0.43424     0.24473    -0.00000     0.46818     0.62254
  
  S  H   3   0.36757    -0.44243     0.25157    -0.00000     0.61482    -0.47734


 Reference determinate nber   1 is ALPHA 1 -   4
 SINGLE excitations FROM orbs   3 to   4 INTO orbs   5 to   6
 

 CI excitations=    5:        =  5
 The lowest    5 spin-adapted configurations of multiplicity=  1
     sym   eV   cm**-1 -dets- dipole oscilator X FRAG ....Excitations named from first reference determinate
                       tot  #  Debye  strength
 
   1      0.000      0.  1  1  2.4944 0.000000 0  0 (     )->       )
   2     11.134  89804.  1  1  0.7123 0.031549 1  1 (   4 )->   5   )
   3     11.865  95700.  1  1  0.9492 0.000723 1  1 (   4 )->   6   )
   4     14.040 113240.  1  1  0.9214 0.043512 1  1 (   3 )->   5   )
   5     14.779 119201.  1  1  0.6730 0.213000 1  1 (   3 )->   6   )

 Depression of ground-state after CI=          0. cm**-1 Energy=  -465.7222757 eV
 Dipole moment=  1.515231  1.881710 -0.620847 tot=  2.494436 Debyes


  CI trans.  energy frequency wavelength oscillator ---------polarization---------    dipole   ------components----- 
 st.  symm.    eV      cm-1       nm      strength       x          y         z       moment     x       y       z 

   2     11.1239255    89721.    111.46  0.030019   0.150233   0.198572   0.968504  1.264822   1.070  -0.674  -0.028
   3     11.8755385    95783.    104.40  0.002326   0.150233   0.198572   0.968504  1.380723  -0.536   1.260  -0.175
   4     14.0347629   113198.     88.34  0.049228  -0.159156  -0.961987   0.221924  1.240932   0.477  -1.135   0.159
   5     14.7841675   119243.     83.86  0.207037   0.822806  -0.568213  -0.011132  1.073057  -0.878   0.617   0.010
 
 Polarizability (au  ) xx=    1.45 xy=   -0.88 yy=    1.22 xz=    0.04 yz=    0.01 zz=    0.57
 Polarizability (A**3) xx=    0.22 xy=   -0.13 yy=    0.18 xz=    0.01 yz=    0.00 zz=    0.08
 ***********************************
 ***********************************
 CI Matrix
  1.0000000000  0.0000000000  0.0000000000  0.0000000000  0.0000000000 
  0.0000000000 -0.9930968258  0.1172974621 -0.0000000000  0.0000000000 
  0.0000000000 -0.1172974621 -0.9930968258 -0.0000000000 -0.0000000000 
  0.0000000000  0.0000000000  0.0000000000 -0.9965139159  0.0834267072 
  0.0000000000 -0.0000000000 -0.0000000000  0.0834267072  0.9965139159 
 ***********************************
 ***********************************
 
 
 Major CI contributions to CI states
 
State    1  0.0000     CI coeff  CI percent
    Config       1   1.00000000  1.00000000
 Total coeff printed             1.00000000
  
State    2 11.1239     CI coeff  CI percent
    Config       2  -0.99309683  0.98624131
    Config       3   0.11729746  0.01375869
 Total coeff printed             1.00000000
  
State    3 11.8755     CI coeff  CI percent
    Config       2  -0.11729746  0.01375869
    Config       3  -0.99309683  0.98624131
 Total coeff printed             1.00000000
  
State    4 14.0348     CI coeff  CI percent
    Config       4  -0.99651392  0.99303998
    Config       5   0.08342671  0.00696002
 Total coeff printed             1.00000000
  
State    5 14.7842     CI coeff  CI percent
    Config       4   0.08342671  0.00696002
    Config       5   0.99651392  0.99303998
 Total coeff printed             1.00000000
  

 -------------------------------------------------------------------------------
 INDO C.I.=(4,2) AllVEC CHARGE=0 RELSCF=0.000001




     1SCF WAS SPECIFIED, SO BFGS WAS NOT USED                 
     SCF FIELD WAS ACHIEVED                                   


                              INDO CALCULATION
                                                       MOPAC2016 (Version: 20.173L)
                                                       Thu Jun  1 14:00:57 2023




          FINAL HEAT OF FORMATION =      -8356.44562 KCAL/MOL =  -34963.36847 KJ/MOL


          TOTAL ENERGY            =       -369.47152 EV
          ELECTRONIC ENERGY       =       -465.72228 EV  POINT GROUP:     C2v 
          CORE-CORE REPULSION     =         96.25076 EV
          COSMO AREA              =         42.57 SQUARE ANGSTROMS
          COSMO VOLUME            =         25.30 CUBIC ANGSTROMS

          IONIZATION POTENTIAL    =         12.835347 EV
          HOMO LUMO ENERGIES (EV) =        -12.835  6.311
          NO. OF FILLED LEVELS    =          4
          MOLECULAR WEIGHT        =         18.0152

          MOLECULAR DIMENSIONS (Angstroms)

            Atom       Atom       Distance
            H     3    H     2     1.49209
            H     2    O     1     0.60888
            O     1    H     3     0.00000


          SCF CALCULATIONS        =          1
 
          WALL-CLOCK TIME         =          0.023 SECONDS
          COMPUTATION TIME        =          0.010 SECONDS




   ATOM   CHEMICAL          X               Y               Z
  NUMBER   SYMBOL      (ANGSTROMS)     (ANGSTROMS)     (ANGSTROMS)
 
     1       O         -1.05225125  *   0.46352200  *   0.01697053  *
     2       H         -0.11343180  *   0.45598784  *  -0.12711293  *
     3       H         -1.26680383  *   1.40246822  *  -0.14226052  *

                             CARTESIAN COORDINATES

   1    O       -1.052251250     0.463522004     0.016970527
   2    H       -0.113431800     0.455987836    -0.127112933
   3    H       -1.266803826     1.402468215    -0.142260516


           Empirical Formula: H2 O  =     3 atoms



      MOLECULAR POINT GROUP   :   C2v 


                EIGENVECTORS  


   Root No.       1         2         3         4         5         6

                 1 a1      1 b2      2 a1      1 b1      3 a1      2 b2  

               -40.908   -19.476   -14.875   -12.835     6.311     7.793
  
  S   O    1    0.8293   -0.0091   -0.4068    0.0000   -0.3790   -0.0556
  Px  O    1    0.1139    0.6130    0.5122    0.1502   -0.2392   -0.5187
  Py  O    1    0.1320   -0.4897    0.6363    0.1986   -0.4314    0.3352
  Pz  O    1   -0.0447    0.0053   -0.2099    0.9685    0.1256    0.0117
  S   H    2    0.3805    0.4342    0.2447   -0.0000    0.4682    0.6225
  S   H    3    0.3676   -0.4424    0.2516   -0.0000    0.6148   -0.4773


              NET ATOMIC CHARGES AND DIPOLE CONTRIBUTIONS

  ATOM NO.   TYPE          CHARGE      No. of ELECS.   s-Pop       p-Pop       
    1          O          -0.425207        6.4252     1.70651     4.71870
    2          H           0.213490        0.7865     0.78651
    3          H           0.211717        0.7883     0.78828
 DIPOLE           X         Y         Z       TOTAL
 POINT-CHG.     0.745     0.947    -0.310     1.244
 HYBRID         0.771     0.935    -0.311     1.251
 SUM            1.515     1.882    -0.621     2.495


          ATOMIC ORBITAL ELECTRON POPULATIONS

     Atom    s        px        py        pz   
    1  O   1.70651   1.34747   1.40304   1.96819
    2  H   0.78651
    3  H   0.78828

 **********************
 *                    *
 * JOB ENDED NORMALLY *
 *                    *
 **********************



 TOTAL JOB TIME:             0.05 SECONDS

 == MOPAC DONE ==


          MOPAC Job: "./h2oTraj/h2o_31.mop" ended normally on Jun  1, 2023, at 14:00.

rm: cannot remove ‘./h2oTraj/h2o_31.cim’: No such file or directory
rm: cannot remove ‘./h2oTraj/h2o_31.end’: No such file or directory
rm: cannot remove ‘./h2oTraj/h2o_31.log’: No such file or directory
rm: cannot remove ‘./h2oTraj/h2o_31.temp’: No such file or directory
rm: cannot remove ‘./h2oTraj/h2o_31.ple’: No such file or directory
rm: cannot remove ‘./h2oTraj/h2o_31.sts’: No such file or directory
