 *******************************************************************************
 ** Site#:    0         For non-commercial use only    Version 20.173L 64BITS **
 *******************************************************************************
 ** Cite this program as: MOPAC2016, Version: 20.173L, James J. P. Stewart,   **
 ** Stewart Computational Chemistry, web-site: HTTP://OpenMOPAC.net.          **
 *******************************************************************************
 **                                                                           **
 **                                MOPAC2016                                  **
 **                                                                           **
 *******************************************************************************

                              INDO CALCULATION RESULTS

 *******************************************************************************
 *  CALCULATION DONE:                                Thu Jun  1 14:01:06 2023  *
 *  INDO       - The INDO Hamiltonian to be used
 *
 *
 *
 *                 CHARGE ON SYSTEM = 0
 *
 *
 *
 *  C.I.=(N,M) - 2 DOUBLY FILLED LEVELS USED IN A C.I. INVOLVING 4 M.O.'S
 *  T=         - A TIME OF 172800.0 SECONDS REQUESTED
 *  DUMP=N     - RESTART FILE WRITTEN EVERY 7200.0 SECONDS REQUESTED
 *  RELSCF     - DEFAULT SCF CRITERION MULTIPLIED BY 0.0000
 *              (DEFAULT SCF CRITERION = 0.00010)
 *  ALLVEC     - PRINT ALL EIGENVECTORS
 **********
 *  WARNING: Specified print options may not behave as expected with INDO
 **********
 *******************************************************************************
INDO C.I.=(4,2) AllVEC CHARGE=0 RELSCF=0.000001


   ATOM   CHEMICAL          X               Y               Z
  NUMBER   SYMBOL      (ANGSTROMS)     (ANGSTROMS)     (ANGSTROMS)
 
     1       O         -1.05009886  *   0.47577908  *   0.03611676  *
     2       H         -0.12448189  *   0.33406050  *  -0.23410355  *
     3       H         -1.28991874  *   1.32983885  *  -0.33917842  *
 


          CARTESIAN COORDINATES 

    NO.       ATOM           X           Y           Z

     1         O         -1.0501      0.4758      0.0361
     2         H         -0.1245      0.3341     -0.2341
     3         H         -1.2899      1.3298     -0.3392

           Empirical Formula: H2 O  =     3 atoms



      MOLECULAR POINT GROUP   :   C2v 


      RHF CALCULATION, NO. OF DOUBLY OCCUPIED LEVELS = 4

 WARNING: INDO only performs single-point calculations
  SCF CRITERION =    0.1000E-09

 Summary of symmetry occupancy in each shell:

 SHELL     
    1    4
    v    2
 TOTAL   6




    ROOT NO.    1           2           3           4           5           6

           -40.65782   -19.68502   -14.70176   -12.81313     6.12561     7.84015
  
  
  S  O   1   0.83347     0.00407    -0.39535    -0.00000    -0.38545    -0.02102
 PX  O   1   0.09800     0.58923     0.48932     0.31304    -0.30879     0.45873
 PY  O   1   0.10745    -0.50824     0.51735     0.45438    -0.28069    -0.42100
 PZ  O   1  -0.09532     0.05573    -0.46553     0.83399     0.26883     0.05719
  
  S  H   2   0.36801     0.44414     0.24631     0.00000     0.57638    -0.52385
  
  S  H   3   0.37371    -0.44059     0.24336     0.00000     0.52230     0.57809


 Reference determinate nber   1 is ALPHA 1 -   4
 SINGLE excitations FROM orbs   3 to   4 INTO orbs   5 to   6
 

 CI excitations=    5:        =  5
 The lowest    5 spin-adapted configurations of multiplicity=  1
     sym   eV   cm**-1 -dets- dipole oscilator X FRAG ....Excitations named from first reference determinate
                       tot  #  Debye  strength
 
   1      0.000      0.  1  1  2.4464 0.000000 0  0 (     )->       )
   2     10.986  88606.  1  1  0.2940 0.032192 1  1 (   4 )->   5   )
   3     11.870  95741.  1  1  0.7623 0.000103 1  1 (   4 )->   6   )
   4     13.707 110554.  1  1  0.6835 0.032163 1  1 (   3 )->   5   )
   5     14.619 117907.  1  1  0.2593 0.215281 1  1 (   3 )->   6   )

 Depression of ground-state after CI=          0. cm**-1 Energy=  -465.0651528 eV
 Dipole moment=  1.407220  1.487530 -1.338644 tot=  2.446422 Debyes


  CI trans.  energy frequency wavelength oscillator ---------polarization---------    dipole   ------components----- 
 st.  symm.    eV      cm-1       nm      strength       x          y         z       moment     x       y       z 

   2     10.9843419    88595.    112.87  0.032001   0.313041   0.454379   0.833994  0.489120  -0.292   0.380  -0.097
   3     11.8716491    95752.    104.44  0.000305   0.313045   0.454373   0.833995  0.849169   0.756   0.141  -0.360
   4     13.7062614   110549.     90.46  0.032837  -0.719500  -0.459736   0.520540  0.744707  -0.663  -0.124   0.316
   5     14.6192273   117912.     84.81  0.214570  -0.743757   0.663371  -0.082250  0.393923   0.282  -0.272   0.042
 
 Polarizability (au  ) xx=    1.49 xy=   -0.89 yy=    1.19 xz=    0.15 yz=    0.01 zz=    0.53
 Polarizability (A**3) xx=    0.22 xy=   -0.13 yy=    0.18 xz=    0.02 yz=    0.00 zz=    0.08
 ***********************************
 ***********************************
 CI Matrix
  1.0000000000  0.0000000000  0.0000000000  0.0000000000  0.0000000000 
  0.0000000000 -0.9992320977  0.0391818197  0.0000001316  0.0000000018 
  0.0000000000 -0.0391818197 -0.9992320977  0.0000000687  0.0000001331 
  0.0000000000 -0.0000001340 -0.0000000600 -0.9996652996  0.0258706168 
  0.0000000000  0.0000000105  0.0000001345  0.0258706168  0.9996652996 
 ***********************************
 ***********************************
 
 
 Major CI contributions to CI states
 
State    1  0.0000     CI coeff  CI percent
    Config       1   1.00000000  1.00000000
 Total coeff printed             1.00000000
  
State    2 10.9843     CI coeff  CI percent
    Config       2  -0.99923210  0.99846479
 Total coeff printed             0.99846479
  
State    3 11.8716     CI coeff  CI percent
    Config       3  -0.99923210  0.99846479
 Total coeff printed             0.99846479
  
State    4 13.7063     CI coeff  CI percent
    Config       4  -0.99966530  0.99933071
 Total coeff printed             0.99933071
  
State    5 14.6192     CI coeff  CI percent
    Config       5   0.99966530  0.99933071
 Total coeff printed             0.99933071
  

 -------------------------------------------------------------------------------
 INDO C.I.=(4,2) AllVEC CHARGE=0 RELSCF=0.000001




     1SCF WAS SPECIFIED, SO BFGS WAS NOT USED                 
     SCF FIELD WAS ACHIEVED                                   


                              INDO CALCULATION
                                                       MOPAC2016 (Version: 20.173L)
                                                       Thu Jun  1 14:01:06 2023




          FINAL HEAT OF FORMATION =      -8348.81639 KCAL/MOL =  -34931.44776 KJ/MOL


          TOTAL ENERGY            =       -369.14068 EV
          ELECTRONIC ENERGY       =       -465.06515 EV  POINT GROUP:     C2v 
          CORE-CORE REPULSION     =         95.92447 EV
          COSMO AREA              =         42.49 SQUARE ANGSTROMS
          COSMO VOLUME            =         25.23 CUBIC ANGSTROMS

          IONIZATION POTENTIAL    =         12.813134 EV
          HOMO LUMO ENERGIES (EV) =        -12.813  6.126
          NO. OF FILLED LEVELS    =          4
          MOLECULAR WEIGHT        =         18.0152

          MOLECULAR DIMENSIONS (Angstroms)

            Atom       Atom       Distance
            H     3    H     2     1.53651
            H     2    O     1     0.59039
            O     1    H     3     0.00000


          SCF CALCULATIONS        =          1
 
          WALL-CLOCK TIME         =          0.062 SECONDS
          COMPUTATION TIME        =          0.010 SECONDS




   ATOM   CHEMICAL          X               Y               Z
  NUMBER   SYMBOL      (ANGSTROMS)     (ANGSTROMS)     (ANGSTROMS)
 
     1       O         -1.05009886  *   0.47577908  *   0.03611676  *
     2       H         -0.12448189  *   0.33406050  *  -0.23410355  *
     3       H         -1.28991874  *   1.32983885  *  -0.33917842  *

                             CARTESIAN COORDINATES

   1    O       -1.050098855     0.475779076     0.036116764
   2    H       -0.124481886     0.334060500    -0.234103552
   3    H       -1.289918735     1.329838854    -0.339178417


           Empirical Formula: H2 O  =     3 atoms



      MOLECULAR POINT GROUP   :   C2v 


                EIGENVECTORS  


   Root No.       1         2         3         4         5         6

                 1 a1      1 b2      2 a1      1 b1      3 a1      2 b2  

               -40.658   -19.685   -14.702   -12.813     6.126     7.840
  
  S   O    1    0.8335    0.0041   -0.3953   -0.0000   -0.3854   -0.0210
  Px  O    1    0.0980    0.5892    0.4893    0.3130   -0.3088    0.4587
  Py  O    1    0.1075   -0.5082    0.5174    0.4544   -0.2807   -0.4210
  Pz  O    1   -0.0953    0.0557   -0.4655    0.8340    0.2688    0.0572
  S   H    2    0.3680    0.4441    0.2463    0.0000    0.5764   -0.5239
  S   H    3    0.3737   -0.4406    0.2434    0.0000    0.5223    0.5781


              NET ATOMIC CHARGES AND DIPOLE CONTRIBUTIONS

  ATOM NO.   TYPE          CHARGE      No. of ELECS.   s-Pop       p-Pop       
    1          O          -0.427271        6.4273     1.70198     4.72529
    2          H           0.213286        0.7867     0.78671
    3          H           0.213985        0.7860     0.78602
 DIPOLE           X         Y         Z       TOTAL
 POINT-CHG.     0.702     0.733    -0.663     1.212
 HYBRID         0.706     0.755    -0.676     1.235
 SUM            1.407     1.488    -1.339     2.447


          ATOMIC ORBITAL ELECTRON POPULATIONS

     Atom    s        px        py        pz   
    1  O   1.70198   1.38844   1.48794   1.84892
    2  H   0.78671
    3  H   0.78602

 **********************
 *                    *
 * JOB ENDED NORMALLY *
 *                    *
 **********************



 TOTAL JOB TIME:             0.12 SECONDS

 == MOPAC DONE ==


          MOPAC Job: "./h2oTraj/h2o_87.mop" ended normally on Jun  1, 2023, at 14:01.

rm: cannot remove ‘./h2oTraj/h2o_87.cim’: No such file or directory
rm: cannot remove ‘./h2oTraj/h2o_87.end’: No such file or directory
rm: cannot remove ‘./h2oTraj/h2o_87.log’: No such file or directory
rm: cannot remove ‘./h2oTraj/h2o_87.temp’: No such file or directory
rm: cannot remove ‘./h2oTraj/h2o_87.ple’: No such file or directory
rm: cannot remove ‘./h2oTraj/h2o_87.sts’: No such file or directory
