 *******************************************************************************
 ** Site#:    0         For non-commercial use only    Version 20.173L 64BITS **
 *******************************************************************************
 ** Cite this program as: MOPAC2016, Version: 20.173L, James J. P. Stewart,   **
 ** Stewart Computational Chemistry, web-site: HTTP://OpenMOPAC.net.          **
 *******************************************************************************
 **                                                                           **
 **                                MOPAC2016                                  **
 **                                                                           **
 *******************************************************************************

                              INDO CALCULATION RESULTS

 *******************************************************************************
 *  CALCULATION DONE:                                Thu Jun  1 14:00:53 2023  *
 *  INDO       - The INDO Hamiltonian to be used
 *
 *
 *
 *                 CHARGE ON SYSTEM = 0
 *
 *
 *
 *  C.I.=(N,M) - 2 DOUBLY FILLED LEVELS USED IN A C.I. INVOLVING 4 M.O.'S
 *  T=         - A TIME OF 172800.0 SECONDS REQUESTED
 *  DUMP=N     - RESTART FILE WRITTEN EVERY 7200.0 SECONDS REQUESTED
 *  RELSCF     - DEFAULT SCF CRITERION MULTIPLIED BY 0.0000
 *              (DEFAULT SCF CRITERION = 0.00010)
 *  ALLVEC     - PRINT ALL EIGENVECTORS
 **********
 *  WARNING: Specified print options may not behave as expected with INDO
 **********
 *******************************************************************************
INDO C.I.=(4,2) AllVEC CHARGE=0 RELSCF=0.000001


   ATOM   CHEMICAL          X               Y               Z
  NUMBER   SYMBOL      (ANGSTROMS)     (ANGSTROMS)     (ANGSTROMS)
 
     1       O         -1.04711424  *   0.46198653  *   0.00167200  *
     2       H         -0.09953023  *   0.47413340  *  -0.01669937  *
     3       H         -1.36224516  *   1.40869531  *  -0.00984025  *
 


          CARTESIAN COORDINATES 

    NO.       ATOM           X           Y           Z

     1         O         -1.0471      0.4620      0.0017
     2         H         -0.0995      0.4741     -0.0167
     3         H         -1.3622      1.4087     -0.0098

           Empirical Formula: H2 O  =     3 atoms



      MOLECULAR POINT GROUP   :   C2v 


      RHF CALCULATION, NO. OF DOUBLY OCCUPIED LEVELS = 4

 WARNING: INDO only performs single-point calculations
  SCF CRITERION =    0.1000E-09

 Summary of symmetry occupancy in each shell:

 SHELL     
    1    4
    v    2
 TOTAL   6




    ROOT NO.    1           2           3           4           5           6

           -40.49269   -19.83764   -14.55492   -12.79128     5.90248     7.97370
  
  
  S  O   1   0.83640    -0.01821    -0.38570     0.00000    -0.38086    -0.07925
 PX  O   1   0.10740     0.63493     0.49593     0.01914    -0.18162    -0.55321
 PY  O   1   0.13076    -0.44740     0.69850     0.01853    -0.45904     0.28943
 PZ  O   1  -0.00448    -0.00387    -0.02244     0.99965     0.01199     0.00523
  
  S  H   2   0.38110     0.43728     0.23526    -0.00000     0.44442     0.64085
  
  S  H   3   0.35573    -0.45293     0.24806    -0.00000     0.64311    -0.43954


 Reference determinate nber   1 is ALPHA 1 -   4
 SINGLE excitations FROM orbs   3 to   4 INTO orbs   5 to   6
 

 CI excitations=    5:        =  5
 The lowest    5 spin-adapted configurations of multiplicity=  1
     sym   eV   cm**-1 -dets- dipole oscilator X FRAG ....Excitations named from first reference determinate
                       tot  #  Debye  strength
 
   1      0.000      0.  1  1  2.4068 0.000000 0  0 (     )->       )
   2     10.765  86822.  1  1  1.0212 0.030797 1  1 (   4 )->   5   )
   3     11.990  96708.  1  1  1.1814 0.001485 1  1 (   4 )->   6   )
   4     13.350 107676.  1  1  1.1634 0.035208 1  1 (   3 )->   5   )
   5     14.580 117600.  1  1  0.9585 0.204949 1  1 (   3 )->   6   )

 Depression of ground-state after CI=          0. cm**-1 Energy=  -464.6212612 eV
 Dipole moment=  1.390611  1.963442 -0.063022 tot=  2.406839 Debyes


  CI trans.  energy frequency wavelength oscillator ---------polarization---------    dipole   ------components----- 
 st.  symm.    eV      cm-1       nm      strength       x          y         z       moment     x       y       z 

   2     10.7504318    86708.    115.33  0.029077   0.019143   0.018528   0.999645  1.527380   1.321  -0.767  -0.011
   3     12.0042747    96821.    103.28  0.003363   0.019145   0.018527   0.999645  1.598279  -0.754   1.409  -0.012
   4     13.3439667   107627.     92.91  0.041558   0.057383  -0.998201   0.017403  1.456630   0.723  -1.265   0.010
   5     14.5865855   117649.     85.00  0.198077   0.846116  -0.532962  -0.006325  1.299927  -1.072   0.735   0.007
 
 Polarizability (au  ) xx=    1.48 xy=   -0.96 yy=    1.10 xz=    0.00 yz=    0.01 zz=    0.61
 Polarizability (A**3) xx=    0.22 xy=   -0.14 yy=    0.16 xz=    0.00 yz=    0.00 zz=    0.09
 ***********************************
 ***********************************
 CI Matrix
  1.0000000000  0.0000000000  0.0000000000  0.0000000000  0.0000000000 
  0.0000000000 -0.9943641244  0.1060188105 -0.0000001213  0.0000000114 
  0.0000000000 -0.1060188105 -0.9943641244 -0.0000000712 -0.0000001319 
  0.0000000000  0.0000001277  0.0000000485 -0.9975337469  0.0701884883 
  0.0000000000 -0.0000000116 -0.0000001361  0.0701884883  0.9975337469 
 ***********************************
 ***********************************
 
 
 Major CI contributions to CI states
 
State    1  0.0000     CI coeff  CI percent
    Config       1   1.00000000  1.00000000
 Total coeff printed             1.00000000
  
State    2 10.7504     CI coeff  CI percent
    Config       2  -0.99436412  0.98876001
    Config       3   0.10601881  0.01123999
 Total coeff printed             1.00000000
  
State    3 12.0043     CI coeff  CI percent
    Config       2  -0.10601881  0.01123999
    Config       3  -0.99436412  0.98876001
 Total coeff printed             1.00000000
  
State    4 13.3440     CI coeff  CI percent
    Config       4  -0.99753375  0.99507358
    Config       5   0.07018849  0.00492642
 Total coeff printed             1.00000000
  
State    5 14.5866     CI coeff  CI percent
    Config       4   0.07018849  0.00492642
    Config       5   0.99753375  0.99507358
 Total coeff printed             1.00000000
  

 -------------------------------------------------------------------------------
 INDO C.I.=(4,2) AllVEC CHARGE=0 RELSCF=0.000001




     1SCF WAS SPECIFIED, SO BFGS WAS NOT USED                 
     SCF FIELD WAS ACHIEVED                                   


                              INDO CALCULATION
                                                       MOPAC2016 (Version: 20.173L)
                                                       Thu Jun  1 14:00:54 2023




          FINAL HEAT OF FORMATION =      -8343.51304 KCAL/MOL =  -34909.25854 KJ/MOL


          TOTAL ENERGY            =       -368.91071 EV
          ELECTRONIC ENERGY       =       -464.62126 EV  POINT GROUP:     C2v 
          CORE-CORE REPULSION     =         95.71055 EV
          COSMO AREA              =         42.80 SQUARE ANGSTROMS
          COSMO VOLUME            =         25.42 CUBIC ANGSTROMS

          IONIZATION POTENTIAL    =         12.791280 EV
          HOMO LUMO ENERGIES (EV) =        -12.791  5.902
          NO. OF FILLED LEVELS    =          4
          MOLECULAR WEIGHT        =         18.0152

          MOLECULAR DIMENSIONS (Angstroms)

            Atom       Atom       Distance
            H     3    H     2     1.57096
            O     1    H     3     0.57369
            H     2    O     1     0.00000


          SCF CALCULATIONS        =          1
 
          WALL-CLOCK TIME         =          0.102 SECONDS
          COMPUTATION TIME        =          0.013 SECONDS




   ATOM   CHEMICAL          X               Y               Z
  NUMBER   SYMBOL      (ANGSTROMS)     (ANGSTROMS)     (ANGSTROMS)
 
     1       O         -1.04711424  *   0.46198653  *   0.00167200  *
     2       H         -0.09953023  *   0.47413340  *  -0.01669937  *
     3       H         -1.36224516  *   1.40869531  *  -0.00984025  *

                             CARTESIAN COORDINATES

   1    O       -1.047114245     0.461986527     0.001671996
   2    H       -0.099530231     0.474133396    -0.016699373
   3    H       -1.362245158     1.408695306    -0.009840248


           Empirical Formula: H2 O  =     3 atoms



      MOLECULAR POINT GROUP   :   C2v 


                EIGENVECTORS  


   Root No.       1         2         3         4         5         6

                 1 a1      1 b2      2 a1      1 b1      3 a1      2 b2  

               -40.493   -19.838   -14.555   -12.791     5.902     7.974
  
  S   O    1    0.8364   -0.0182   -0.3857    0.0000   -0.3809   -0.0792
  Px  O    1    0.1074    0.6349    0.4959    0.0191   -0.1816   -0.5532
  Py  O    1    0.1308   -0.4474    0.6985    0.0185   -0.4590    0.2894
  Pz  O    1   -0.0045   -0.0039   -0.0224    0.9996    0.0120    0.0052
  S   H    2    0.3811    0.4373    0.2353   -0.0000    0.4444    0.6409
  S   H    3    0.3557   -0.4529    0.2481   -0.0000    0.6431   -0.4395


              NET ATOMIC CHARGES AND DIPOLE CONTRIBUTIONS

  ATOM NO.   TYPE          CHARGE      No. of ELECS.   s-Pop       p-Pop       
    1          O          -0.429977        6.4300     1.69733     4.73265
    2          H           0.216408        0.7836     0.78359
    3          H           0.213569        0.7864     0.78643
 DIPOLE           X         Y         Z       TOTAL
 POINT-CHG.     0.662     0.984    -0.031     1.186
 HYBRID         0.729     0.980    -0.032     1.222
 SUM            1.391     1.964    -0.063     2.407


          ATOMIC ORBITAL ELECTRON POPULATIONS

     Atom    s        px        py        pz   
    1  O   1.69733   1.32195   1.41104   1.99966
    2  H   0.78359
    3  H   0.78643

 **********************
 *                    *
 * JOB ENDED NORMALLY *
 *                    *
 **********************



 TOTAL JOB TIME:             0.18 SECONDS

 == MOPAC DONE ==


          MOPAC Job: "./h2oTraj/h2o_0.mop" ended normally on Jun  1, 2023, at 14:00.

rm: cannot remove ‘./h2oTraj/h2o_0.cim’: No such file or directory
rm: cannot remove ‘./h2oTraj/h2o_0.end’: No such file or directory
rm: cannot remove ‘./h2oTraj/h2o_0.log’: No such file or directory
rm: cannot remove ‘./h2oTraj/h2o_0.temp’: No such file or directory
rm: cannot remove ‘./h2oTraj/h2o_0.ple’: No such file or directory
rm: cannot remove ‘./h2oTraj/h2o_0.sts’: No such file or directory
