 *******************************************************************************
 ** Site#:    0         For non-commercial use only    Version 20.173L 64BITS **
 *******************************************************************************
 ** Cite this program as: MOPAC2016, Version: 20.173L, James J. P. Stewart,   **
 ** Stewart Computational Chemistry, web-site: HTTP://OpenMOPAC.net.          **
 *******************************************************************************
 **                                                                           **
 **                                MOPAC2016                                  **
 **                                                                           **
 *******************************************************************************

                              INDO CALCULATION RESULTS

 *******************************************************************************
 *  CALCULATION DONE:                                Thu Jun  1 14:01:06 2023  *
 *  INDO       - The INDO Hamiltonian to be used
 *
 *
 *
 *                 CHARGE ON SYSTEM = 0
 *
 *
 *
 *  C.I.=(N,M) - 2 DOUBLY FILLED LEVELS USED IN A C.I. INVOLVING 4 M.O.'S
 *  T=         - A TIME OF 172800.0 SECONDS REQUESTED
 *  DUMP=N     - RESTART FILE WRITTEN EVERY 7200.0 SECONDS REQUESTED
 *  RELSCF     - DEFAULT SCF CRITERION MULTIPLIED BY 0.0000
 *              (DEFAULT SCF CRITERION = 0.00010)
 *  ALLVEC     - PRINT ALL EIGENVECTORS
 **********
 *  WARNING: Specified print options may not behave as expected with INDO
 **********
 *******************************************************************************
INDO C.I.=(4,2) AllVEC CHARGE=0 RELSCF=0.000001


   ATOM   CHEMICAL          X               Y               Z
  NUMBER   SYMBOL      (ANGSTROMS)     (ANGSTROMS)     (ANGSTROMS)
 
     1       O         -1.05151009  *   0.47132334  *   0.03239920  *
     2       H         -0.08724997  *   0.37689766  *  -0.23679372  *
     3       H         -1.30475014  *   1.35772767  *  -0.27747936  *
 


          CARTESIAN COORDINATES 

    NO.       ATOM           X           Y           Z

     1         O         -1.0515      0.4713      0.0324
     2         H         -0.0872      0.3769     -0.2368
     3         H         -1.3048      1.3577     -0.2775

           Empirical Formula: H2 O  =     3 atoms



      MOLECULAR POINT GROUP   :   C2v 


      RHF CALCULATION, NO. OF DOUBLY OCCUPIED LEVELS = 4

 WARNING: INDO only performs single-point calculations
  SCF CRITERION =    0.1000E-09

 Summary of symmetry occupancy in each shell:

 SHELL     
    1    4
    v    2
 TOTAL   6




    ROOT NO.    1           2           3           4           5           6

           -40.22153   -19.49770   -14.72509   -12.80744     5.81269     7.56377
  
  
  S  O   1   0.83742     0.01241    -0.39447     0.00000    -0.37352    -0.05876
 PX  O   1   0.09247     0.59932     0.48437     0.28289    -0.35336     0.43905
 PY  O   1   0.11995    -0.49787     0.56468     0.38754    -0.27482    -0.43949
 PZ  O   1  -0.08280     0.02668    -0.40559     0.87737     0.23532     0.05257
  
  S  H   2   0.35829     0.44748     0.25609    -0.00000     0.62141    -0.46868
  
  S  H   3   0.37492    -0.43799     0.24665     0.00000     0.46751     0.62306


 Reference determinate nber   1 is ALPHA 1 -   4
 SINGLE excitations FROM orbs   3 to   4 INTO orbs   5 to   6
 

 CI excitations=    5:        =  5
 The lowest    5 spin-adapted configurations of multiplicity=  1
     sym   eV   cm**-1 -dets- dipole oscilator X FRAG ....Excitations named from first reference determinate
                       tot  #  Debye  strength
 
   1      0.000      0.  1  1  2.4615 0.000000 0  0 (     )->       )
   2     10.662  85992.  1  1  0.7798 0.029338 1  1 (   4 )->   5   )
   3     11.634  93837.  1  1  0.9920 0.000792 1  1 (   4 )->   6   )
   4     13.502 108904.  1  1  0.9702 0.043512 1  1 (   3 )->   5   )
   5     14.437 116440.  1  1  0.7384 0.221086 1  1 (   3 )->   6   )

 Depression of ground-state after CI=          0. cm**-1 Energy=  -463.1145637 eV
 Dipole moment=  1.405306  1.641803 -1.178298 tot=  2.461461 Debyes


  CI trans.  energy frequency wavelength oscillator ---------polarization---------    dipole   ------components----- 
 st.  symm.    eV      cm-1       nm      strength       x          y         z       moment     x       y       z 

   2     10.6526104    85919.    116.39  0.028181   0.282888   0.387541   0.877375  1.249088  -0.896   0.865  -0.093
   3     11.6432669    93910.    106.49  0.002031   0.282887   0.387541   0.877375  1.361444   1.296  -0.305  -0.283
   4     13.4975749   108866.     91.86  0.048850  -0.875532  -0.269215   0.401207  1.260496  -1.198   0.301   0.253
   5     14.4415690   116479.     85.85  0.215432  -0.732570   0.677755  -0.063169  1.095025   0.825  -0.718   0.051
 
 Polarizability (au  ) xx=    1.73 xy=   -0.93 yy=    1.19 xz=    0.04 yz=    0.04 zz=    0.56
 Polarizability (A**3) xx=    0.26 xy=   -0.14 yy=    0.18 xz=    0.01 yz=    0.01 zz=    0.08
 ***********************************
 ***********************************
 CI Matrix
  1.0000000000  0.0000000000  0.0000000000  0.0000000000  0.0000000000 
  0.0000000000 -0.9954629690  0.0951497632 -0.0000000622  0.0000000120 
  0.0000000000 -0.0951497632 -0.9954629690  0.0000000620 -0.0000000390 
  0.0000000000  0.0000000564 -0.0000000703 -0.9974412743  0.0714905888 
  0.0000000000  0.0000000042 -0.0000000351  0.0714905888  0.9974412743 
 ***********************************
 ***********************************
 
 
 Major CI contributions to CI states
 
State    1  0.0000     CI coeff  CI percent
    Config       1   1.00000000  1.00000000
 Total coeff printed             1.00000000
  
State    2 10.6526     CI coeff  CI percent
    Config       2  -0.99546297  0.99094652
    Config       3   0.09514976  0.00905348
 Total coeff printed             1.00000000
  
State    3 11.6433     CI coeff  CI percent
    Config       2  -0.09514976  0.00905348
    Config       3  -0.99546297  0.99094652
 Total coeff printed             1.00000000
  
State    4 13.4976     CI coeff  CI percent
    Config       4  -0.99744127  0.99488910
    Config       5   0.07149059  0.00511090
 Total coeff printed             1.00000000
  
State    5 14.4416     CI coeff  CI percent
    Config       4   0.07149059  0.00511090
    Config       5   0.99744127  0.99488910
 Total coeff printed             1.00000000
  

 -------------------------------------------------------------------------------
 INDO C.I.=(4,2) AllVEC CHARGE=0 RELSCF=0.000001




     1SCF WAS SPECIFIED, SO BFGS WAS NOT USED                 
     SCF FIELD WAS ACHIEVED                                   


                              INDO CALCULATION
                                                       MOPAC2016 (Version: 20.173L)
                                                       Thu Jun  1 14:01:06 2023




          FINAL HEAT OF FORMATION =      -8323.01711 KCAL/MOL =  -34823.50360 KJ/MOL


          TOTAL ENERGY            =       -368.02192 EV
          ELECTRONIC ENERGY       =       -463.11456 EV  POINT GROUP:     C2v 
          CORE-CORE REPULSION     =         95.09265 EV
          COSMO AREA              =         42.85 SQUARE ANGSTROMS
          COSMO VOLUME            =         25.53 CUBIC ANGSTROMS

          IONIZATION POTENTIAL    =         12.807442 EV
          HOMO LUMO ENERGIES (EV) =        -12.807  5.813
          NO. OF FILLED LEVELS    =          4
          MOLECULAR WEIGHT        =         18.0152

          MOLECULAR DIMENSIONS (Angstroms)

            Atom       Atom       Distance
            H     3    H     2     1.56397
            H     2    O     1     0.60547
            H     2    O     1     0.00000


          SCF CALCULATIONS        =          1
 
          WALL-CLOCK TIME         =          0.016 SECONDS
          COMPUTATION TIME        =          0.010 SECONDS




   ATOM   CHEMICAL          X               Y               Z
  NUMBER   SYMBOL      (ANGSTROMS)     (ANGSTROMS)     (ANGSTROMS)
 
     1       O         -1.05151009  *   0.47132334  *   0.03239920  *
     2       H         -0.08724997  *   0.37689766  *  -0.23679372  *
     3       H         -1.30475014  *   1.35772767  *  -0.27747936  *

                             CARTESIAN COORDINATES

   1    O       -1.051510087     0.471323340     0.032399204
   2    H       -0.087249968     0.376897660    -0.236793717
   3    H       -1.304750139     1.357727665    -0.277479359


           Empirical Formula: H2 O  =     3 atoms



      MOLECULAR POINT GROUP   :   C2v 


                EIGENVECTORS  


   Root No.       1         2         3         4         5         6

                 1 a1      1 b2      2 a1      1 b1      3 a1      2 b2  

               -40.222   -19.498   -14.725   -12.807     5.813     7.564
  
  S   O    1    0.8374    0.0124   -0.3945    0.0000   -0.3735   -0.0588
  Px  O    1    0.0925    0.5993    0.4844    0.2829   -0.3534    0.4390
  Py  O    1    0.1200   -0.4979    0.5647    0.3875   -0.2748   -0.4395
  Pz  O    1   -0.0828    0.0267   -0.4056    0.8774    0.2353    0.0526
  S   H    2    0.3583    0.4475    0.2561   -0.0000    0.6214   -0.4687
  S   H    3    0.3749   -0.4380    0.2466    0.0000    0.4675    0.6231


              NET ATOMIC CHARGES AND DIPOLE CONTRIBUTIONS

  ATOM NO.   TYPE          CHARGE      No. of ELECS.   s-Pop       p-Pop       
    1          O          -0.425162        6.4252     1.71406     4.71111
    2          H           0.211626        0.7884     0.78837
    3          H           0.213536        0.7865     0.78646
 DIPOLE           X         Y         Z       TOTAL
 POINT-CHG.     0.720     0.813    -0.591     1.237
 HYBRID         0.685     0.829    -0.587     1.225
 SUM            1.405     1.642    -1.178     2.462


          ATOMIC ORBITAL ELECTRON POPULATIONS

     Atom    s        px        py        pz   
    1  O   1.71406   1.36474   1.46264   1.88372
    2  H   0.78837
    3  H   0.78646

 **********************
 *                    *
 * JOB ENDED NORMALLY *
 *                    *
 **********************



 TOTAL JOB TIME:             0.04 SECONDS

 == MOPAC DONE ==


          MOPAC Job: "./h2oTraj/h2o_96.mop" ended normally on Jun  1, 2023, at 14:01.

rm: cannot remove ‘./h2oTraj/h2o_96.cim’: No such file or directory
rm: cannot remove ‘./h2oTraj/h2o_96.end’: No such file or directory
rm: cannot remove ‘./h2oTraj/h2o_96.log’: No such file or directory
rm: cannot remove ‘./h2oTraj/h2o_96.temp’: No such file or directory
rm: cannot remove ‘./h2oTraj/h2o_96.ple’: No such file or directory
rm: cannot remove ‘./h2oTraj/h2o_96.sts’: No such file or directory
