 *******************************************************************************
 ** Site#:    0         For non-commercial use only    Version 20.173L 64BITS **
 *******************************************************************************
 ** Cite this program as: MOPAC2016, Version: 20.173L, James J. P. Stewart,   **
 ** Stewart Computational Chemistry, web-site: HTTP://OpenMOPAC.net.          **
 *******************************************************************************
 **                                                                           **
 **                                MOPAC2016                                  **
 **                                                                           **
 *******************************************************************************

                              INDO CALCULATION RESULTS

 *******************************************************************************
 *  CALCULATION DONE:                                Thu Jun  1 14:01:01 2023  *
 *  INDO       - The INDO Hamiltonian to be used
 *
 *
 *
 *                 CHARGE ON SYSTEM = 0
 *
 *
 *
 *  C.I.=(N,M) - 2 DOUBLY FILLED LEVELS USED IN A C.I. INVOLVING 4 M.O.'S
 *  T=         - A TIME OF 172800.0 SECONDS REQUESTED
 *  DUMP=N     - RESTART FILE WRITTEN EVERY 7200.0 SECONDS REQUESTED
 *  RELSCF     - DEFAULT SCF CRITERION MULTIPLIED BY 0.0000
 *              (DEFAULT SCF CRITERION = 0.00010)
 *  ALLVEC     - PRINT ALL EIGENVECTORS
 **********
 *  WARNING: Specified print options may not behave as expected with INDO
 **********
 *******************************************************************************
INDO C.I.=(4,2) AllVEC CHARGE=0 RELSCF=0.000001


   ATOM   CHEMICAL          X               Y               Z
  NUMBER   SYMBOL      (ANGSTROMS)     (ANGSTROMS)     (ANGSTROMS)
 
     1       O         -1.04884135  *   0.47116243  *   0.02420286  *
     2       H         -0.13237938  *   0.41589099  *  -0.18314657  *
     3       H         -1.30198158  *   1.32128841  *  -0.20102589  *
 


          CARTESIAN COORDINATES 

    NO.       ATOM           X           Y           Z

     1         O         -1.0488      0.4712      0.0242
     2         H         -0.1324      0.4159     -0.1831
     3         H         -1.3020      1.3213     -0.2010

           Empirical Formula: H2 O  =     3 atoms



      MOLECULAR POINT GROUP   :   C2v 


      RHF CALCULATION, NO. OF DOUBLY OCCUPIED LEVELS = 4

 WARNING: INDO only performs single-point calculations
  SCF CRITERION =    0.1000E-09

 Summary of symmetry occupancy in each shell:

 SHELL     
    1    4
    v    2
 TOTAL   6




    ROOT NO.    1           2           3           4           5           6

           -41.58833   -20.02840   -14.65276   -12.82623     6.69412     8.46969
  
  
  S  O   1   0.82553     0.00826    -0.39616     0.00000    -0.39889    -0.04879
 PX  O   1   0.09711     0.61288     0.49385     0.22752    -0.33266     0.45676
 PY  O   1   0.13053    -0.48486     0.61802     0.31212    -0.30220    -0.42093
 PZ  O   1  -0.06812     0.01290    -0.33094     0.92240     0.18431     0.02977
  
  S  H   2   0.37262     0.44561     0.23476    -0.00000     0.60703    -0.48887
  
  S  H   3   0.38542    -0.43644     0.22934    -0.00000     0.48626     0.60986


 Reference determinate nber   1 is ALPHA 1 -   4
 SINGLE excitations FROM orbs   3 to   4 INTO orbs   5 to   6
 

 CI excitations=    5:        =  5
 The lowest    5 spin-adapted configurations of multiplicity=  1
     sym   eV   cm**-1 -dets- dipole oscilator X FRAG ....Excitations named from first reference determinate
                       tot  #  Debye  strength
 
   1      0.000      0.  1  1  2.4155 0.000000 0  0 (     )->       )
   2     11.550  93156.  1  1  0.6102 0.036247 1  1 (   4 )->   5   )
   3     12.444 100371.  1  1  0.9385 0.000584 1  1 (   4 )->   6   )
   4     14.057 113381.  1  1  0.8608 0.023759 1  1 (   3 )->   5   )
   5     15.065 121507.  1  1  0.5582 0.192892 1  1 (   3 )->   6   )

 Depression of ground-state after CI=          0. cm**-1 Energy=  -469.0771438 eV
 Dipole moment=  1.394796  1.737952 -0.932130 tot=  2.415533 Debyes


  CI trans.  energy frequency wavelength oscillator ---------polarization---------    dipole   ------components----- 
 st.  symm.    eV      cm-1       nm      strength       x          y         z       moment     x       y       z 

   2     11.5421324    93094.    107.42  0.035105   0.227516   0.312123   0.922397  1.052735  -0.712   0.770  -0.085
   3     12.4521439   100434.     99.57  0.001790   0.227516   0.312123   0.922397  1.244517   1.212  -0.072  -0.274
   4     14.0547619   113360.     88.21  0.026432  -0.878449  -0.342958   0.332727  1.041691  -1.014   0.053   0.232
   5     15.0675787   121529.     82.29  0.190055  -0.763679   0.644905  -0.029857  0.810239   0.609  -0.534   0.031
 
 Polarizability (au  ) xx=    1.35 xy=   -0.78 yy=    0.87 xz=    0.08 yz=    0.11 zz=    0.55
 Polarizability (A**3) xx=    0.20 xy=   -0.12 yy=    0.13 xz=    0.01 yz=    0.02 zz=    0.08
 ***********************************
 ***********************************
 CI Matrix
  1.0000000000  0.0000000000  0.0000000000  0.0000000000  0.0000000000 
  0.0000000000 -0.9957367828  0.0922402265 -0.0000000000  0.0000000000 
  0.0000000000 -0.0922402265 -0.9957367828  0.0000000000 -0.0000000000 
  0.0000000000  0.0000000000 -0.0000000000 -0.9986946260  0.0510788022 
  0.0000000000 -0.0000000000 -0.0000000000  0.0510788022  0.9986946260 
 ***********************************
 ***********************************
 
 
 Major CI contributions to CI states
 
State    1  0.0000     CI coeff  CI percent
    Config       1   1.00000000  1.00000000
 Total coeff printed             1.00000000
  
State    2 11.5421     CI coeff  CI percent
    Config       2  -0.99573678  0.99149174
    Config       3   0.09224023  0.00850826
 Total coeff printed             1.00000000
  
State    3 12.4521     CI coeff  CI percent
    Config       2  -0.09224023  0.00850826
    Config       3  -0.99573678  0.99149174
 Total coeff printed             1.00000000
  
State    4 14.0548     CI coeff  CI percent
    Config       4  -0.99869463  0.99739096
    Config       5   0.05107880  0.00260904
 Total coeff printed             1.00000000
  
State    5 15.0676     CI coeff  CI percent
    Config       4   0.05107880  0.00260904
    Config       5   0.99869463  0.99739096
 Total coeff printed             1.00000000
  

 -------------------------------------------------------------------------------
 INDO C.I.=(4,2) AllVEC CHARGE=0 RELSCF=0.000001




     1SCF WAS SPECIFIED, SO BFGS WAS NOT USED                 
     SCF FIELD WAS ACHIEVED                                   


                              INDO CALCULATION
                                                       MOPAC2016 (Version: 20.173L)
                                                       Thu Jun  1 14:01:01 2023




          FINAL HEAT OF FORMATION =      -8401.20353 KCAL/MOL =  -35150.63556 KJ/MOL


          TOTAL ENERGY            =       -371.41241 EV
          ELECTRONIC ENERGY       =       -469.07714 EV  POINT GROUP:     C2v 
          CORE-CORE REPULSION     =         97.66474 EV
          COSMO AREA              =         42.04 SQUARE ANGSTROMS
          COSMO VOLUME            =         24.85 CUBIC ANGSTROMS

          IONIZATION POTENTIAL    =         12.826233 EV
          HOMO LUMO ENERGIES (EV) =        -12.826  6.694
          NO. OF FILLED LEVELS    =          4
          MOLECULAR WEIGHT        =         18.0152

          MOLECULAR DIMENSIONS (Angstroms)

            Atom       Atom       Distance
            H     3    H     2     1.47920
            H     2    O     1     0.56077
            H     2    H     3     0.00000


          SCF CALCULATIONS        =          1
 
          WALL-CLOCK TIME         =          0.012 SECONDS
          COMPUTATION TIME        =          0.010 SECONDS




   ATOM   CHEMICAL          X               Y               Z
  NUMBER   SYMBOL      (ANGSTROMS)     (ANGSTROMS)     (ANGSTROMS)
 
     1       O         -1.04884135  *   0.47116243  *   0.02420286  *
     2       H         -0.13237938  *   0.41589099  *  -0.18314657  *
     3       H         -1.30198158  *   1.32128841  *  -0.20102589  *

                             CARTESIAN COORDINATES

   1    O       -1.048841353     0.471162433     0.024202865
   2    H       -0.132379379     0.415890992    -0.183146569
   3    H       -1.301981583     1.321288411    -0.201025887


           Empirical Formula: H2 O  =     3 atoms



      MOLECULAR POINT GROUP   :   C2v 


                EIGENVECTORS  


   Root No.       1         2         3         4         5         6

                 1 a1      1 b2      2 a1      1 b1      3 a1      2 b2  

               -41.588   -20.028   -14.653   -12.826     6.694     8.470
  
  S   O    1    0.8255    0.0083   -0.3962    0.0000   -0.3989   -0.0488
  Px  O    1    0.0971    0.6129    0.4939    0.2275   -0.3327    0.4568
  Py  O    1    0.1305   -0.4849    0.6180    0.3121   -0.3022   -0.4209
  Pz  O    1   -0.0681    0.0129   -0.3309    0.9224    0.1843    0.0298
  S   H    2    0.3726    0.4456    0.2348   -0.0000    0.6070   -0.4889
  S   H    3    0.3854   -0.4364    0.2293   -0.0000    0.4863    0.6099


              NET ATOMIC CHARGES AND DIPOLE CONTRIBUTIONS

  ATOM NO.   TYPE          CHARGE      No. of ELECS.   s-Pop       p-Pop       
    1          O          -0.431714        6.4317     1.67702     4.75469
    2          H           0.214956        0.7850     0.78504
    3          H           0.216758        0.7832     0.78324
 DIPOLE           X         Y         Z       TOTAL
 POINT-CHG.     0.683     0.828    -0.449     1.163
 HYBRID         0.712     0.910    -0.484     1.253
 SUM            1.395     1.738    -0.932     2.416


          ATOMIC ORBITAL ELECTRON POPULATIONS

     Atom    s        px        py        pz   
    1  O   1.67702   1.36142   1.46299   1.93028
    2  H   0.78504
    3  H   0.78324

 **********************
 *                    *
 * JOB ENDED NORMALLY *
 *                    *
 **********************



 TOTAL JOB TIME:             0.03 SECONDS

 == MOPAC DONE ==


          MOPAC Job: "./h2oTraj/h2o_54.mop" ended normally on Jun  1, 2023, at 14:01.

rm: cannot remove ‘./h2oTraj/h2o_54.cim’: No such file or directory
rm: cannot remove ‘./h2oTraj/h2o_54.end’: No such file or directory
rm: cannot remove ‘./h2oTraj/h2o_54.log’: No such file or directory
rm: cannot remove ‘./h2oTraj/h2o_54.temp’: No such file or directory
rm: cannot remove ‘./h2oTraj/h2o_54.ple’: No such file or directory
rm: cannot remove ‘./h2oTraj/h2o_54.sts’: No such file or directory
