 *******************************************************************************
 ** Site#:    0         For non-commercial use only    Version 20.173L 64BITS **
 *******************************************************************************
 ** Cite this program as: MOPAC2016, Version: 20.173L, James J. P. Stewart,   **
 ** Stewart Computational Chemistry, web-site: HTTP://OpenMOPAC.net.          **
 *******************************************************************************
 **                                                                           **
 **                                MOPAC2016                                  **
 **                                                                           **
 *******************************************************************************

                              INDO CALCULATION RESULTS

 *******************************************************************************
 *  CALCULATION DONE:                                Thu Jun  1 14:00:57 2023  *
 *  INDO       - The INDO Hamiltonian to be used
 *
 *
 *
 *                 CHARGE ON SYSTEM = 0
 *
 *
 *
 *  C.I.=(N,M) - 2 DOUBLY FILLED LEVELS USED IN A C.I. INVOLVING 4 M.O.'S
 *  T=         - A TIME OF 172800.0 SECONDS REQUESTED
 *  DUMP=N     - RESTART FILE WRITTEN EVERY 7200.0 SECONDS REQUESTED
 *  RELSCF     - DEFAULT SCF CRITERION MULTIPLIED BY 0.0000
 *              (DEFAULT SCF CRITERION = 0.00010)
 *  ALLVEC     - PRINT ALL EIGENVECTORS
 **********
 *  WARNING: Specified print options may not behave as expected with INDO
 **********
 *******************************************************************************
INDO C.I.=(4,2) AllVEC CHARGE=0 RELSCF=0.000001


   ATOM   CHEMICAL          X               Y               Z
  NUMBER   SYMBOL      (ANGSTROMS)     (ANGSTROMS)     (ANGSTROMS)
 
     1       O         -1.05260471  *   0.46315120  *   0.01787111  *
     2       H         -0.08136233  *   0.44477745  *  -0.13286828  *
     3       H         -1.29326283  *   1.41956441  *  -0.15080011  *
 


          CARTESIAN COORDINATES 

    NO.       ATOM           X           Y           Z

     1         O         -1.0526      0.4632      0.0179
     2         H         -0.0814      0.4448     -0.1329
     3         H         -1.2933      1.4196     -0.1508

           Empirical Formula: H2 O  =     3 atoms



      MOLECULAR POINT GROUP   :   C2v 


      RHF CALCULATION, NO. OF DOUBLY OCCUPIED LEVELS = 4

 WARNING: INDO only performs single-point calculations
  SCF CRITERION =    0.1000E-09

 Summary of symmetry occupancy in each shell:

 SHELL     
    1    4
    v    2
 TOTAL   6




    ROOT NO.    1           2           3           4           5           6

           -40.19428   -19.39435   -14.78927   -12.81413     5.83894     7.44696
  
  
  S  O   1   0.83707    -0.00661    -0.39804     0.00000    -0.37380    -0.03322
 PX  O   1   0.10797     0.61290     0.50763     0.15384    -0.26414    -0.51144
 PY  O   1   0.12895    -0.48390     0.63791     0.20902    -0.41368     0.35701
 PZ  O   1  -0.04511     0.00710    -0.21893     0.96573     0.13162     0.00420
  
  S  H   2   0.37110     0.43918     0.25140    -0.00000     0.50272     0.59454
  
  S  H   3   0.36231    -0.44410     0.25654    -0.00000     0.59103    -0.50633


 Reference determinate nber   1 is ALPHA 1 -   4
 SINGLE excitations FROM orbs   3 to   4 INTO orbs   5 to   6
 

 CI excitations=    5:        =  5
 The lowest    5 spin-adapted configurations of multiplicity=  1
     sym   eV   cm**-1 -dets- dipole oscilator X FRAG ....Excitations named from first reference determinate
                       tot  #  Debye  strength
 
   1      0.000      0.  1  1  2.4802 0.000000 0  0 (     )->       )
   2     10.686  86188.  1  1  0.4507 0.029449 1  1 (   4 )->   5   )
   3     11.529  92989.  1  1  0.7903 0.000251 1  1 (   4 )->   6   )
   4     13.607 109751.  1  1  0.7488 0.043951 1  1 (   3 )->   5   )
   5     14.408 116210.  1  1  0.4238 0.227483 1  1 (   3 )->   6   )

 Depression of ground-state after CI=          0. cm**-1 Energy=  -462.8753522 eV
 Dipole moment=  1.492994  1.873175 -0.643263 tot=  2.480243 Debyes


  CI trans.  energy frequency wavelength oscillator ---------polarization---------    dipole   ------components----- 
 st.  symm.    eV      cm-1       nm      strength       x          y         z       moment     x       y       z 

   2     10.6827284    86162.    116.06  0.029005   0.153839   0.209025   0.965734  0.766365   0.653  -0.401  -0.017
   3     11.5324494    93016.    107.51  0.000720   0.153840   0.209023   0.965734  0.989275  -0.168   0.958  -0.181
   4     13.6055086   109736.     91.13  0.046100  -0.332289  -0.909500   0.249786  0.911701   0.165  -0.881   0.165
   5     14.4100863   116225.     86.04  0.225230   0.808464  -0.588544  -0.001401  0.673071  -0.545   0.394   0.002
 
 Polarizability (au  ) xx=    1.65 xy=   -0.96 yy=    1.32 xz=    0.04 yz=   -0.01 zz=    0.57
 Polarizability (A**3) xx=    0.24 xy=   -0.14 yy=    0.20 xz=    0.01 yz=   -0.00 zz=    0.08
 ***********************************
 ***********************************
 CI Matrix
  1.0000000000  0.0000000000  0.0000000000  0.0000000000  0.0000000000 
  0.0000000000 -0.9980853727  0.0618513452 -0.0000000869  0.0000000129 
  0.0000000000 -0.0618513452 -0.9980853727  0.0000000574 -0.0000000688 
  0.0000000000  0.0000000835 -0.0000000660 -0.9988339440  0.0482778650 
  0.0000000000  0.0000000046 -0.0000000663  0.0482778650  0.9988339440 
 ***********************************
 ***********************************
 
 
 Major CI contributions to CI states
 
State    1  0.0000     CI coeff  CI percent
    Config       1   1.00000000  1.00000000
 Total coeff printed             1.00000000
  
State    2 10.6827     CI coeff  CI percent
    Config       2  -0.99808537  0.99617441
    Config       3   0.06185135  0.00382559
 Total coeff printed             1.00000000
  
State    3 11.5324     CI coeff  CI percent
    Config       2  -0.06185135  0.00382559
    Config       3  -0.99808537  0.99617441
 Total coeff printed             1.00000000
  
State    4 13.6055     CI coeff  CI percent
    Config       4  -0.99883394  0.99766925
    Config       5   0.04827787  0.00233075
 Total coeff printed             1.00000000
  
State    5 14.4101     CI coeff  CI percent
    Config       4   0.04827787  0.00233075
    Config       5   0.99883394  0.99766925
 Total coeff printed             1.00000000
  

 -------------------------------------------------------------------------------
 INDO C.I.=(4,2) AllVEC CHARGE=0 RELSCF=0.000001




     1SCF WAS SPECIFIED, SO BFGS WAS NOT USED                 
     SCF FIELD WAS ACHIEVED                                   


                              INDO CALCULATION
                                                       MOPAC2016 (Version: 20.173L)
                                                       Thu Jun  1 14:00:57 2023




          FINAL HEAT OF FORMATION =      -8319.57889 KCAL/MOL =  -34809.11807 KJ/MOL


          TOTAL ENERGY            =       -367.87282 EV
          ELECTRONIC ENERGY       =       -462.87535 EV  POINT GROUP:     C2v 
          CORE-CORE REPULSION     =         95.00253 EV
          COSMO AREA              =         43.00 SQUARE ANGSTROMS
          COSMO VOLUME            =         25.58 CUBIC ANGSTROMS

          IONIZATION POTENTIAL    =         12.814131 EV
          HOMO LUMO ENERGIES (EV) =        -12.814  5.839
          NO. OF FILLED LEVELS    =          4
          MOLECULAR WEIGHT        =         18.0152

          MOLECULAR DIMENSIONS (Angstroms)

            Atom       Atom       Distance
            H     3    H     2     1.55539
            H     2    O     1     0.61547
            H     2    H     3     0.00000


          SCF CALCULATIONS        =          1
 
          WALL-CLOCK TIME         =          0.020 SECONDS
          COMPUTATION TIME        =          0.011 SECONDS




   ATOM   CHEMICAL          X               Y               Z
  NUMBER   SYMBOL      (ANGSTROMS)     (ANGSTROMS)     (ANGSTROMS)
 
     1       O         -1.05260471  *   0.46315120  *   0.01787111  *
     2       H         -0.08136233  *   0.44477745  *  -0.13286828  *
     3       H         -1.29326283  *   1.41956441  *  -0.15080011  *

                             CARTESIAN COORDINATES

   1    O       -1.052604709     0.463151198     0.017871108
   2    H       -0.081362334     0.444777453    -0.132868277
   3    H       -1.293262832     1.419564408    -0.150800110


           Empirical Formula: H2 O  =     3 atoms



      MOLECULAR POINT GROUP   :   C2v 


                EIGENVECTORS  


   Root No.       1         2         3         4         5         6

                 1 a1      1 b2      2 a1      1 b1      3 a1      2 b2  

               -40.194   -19.394   -14.789   -12.814     5.839     7.447
  
  S   O    1    0.8371   -0.0066   -0.3980    0.0000   -0.3738   -0.0332
  Px  O    1    0.1080    0.6129    0.5076    0.1538   -0.2641   -0.5114
  Py  O    1    0.1289   -0.4839    0.6379    0.2090   -0.4137    0.3570
  Pz  O    1   -0.0451    0.0071   -0.2189    0.9657    0.1316    0.0042
  S   H    2    0.3711    0.4392    0.2514   -0.0000    0.5027    0.5945
  S   H    3    0.3623   -0.4441    0.2565   -0.0000    0.5910   -0.5063


              NET ATOMIC CHARGES AND DIPOLE CONTRIBUTIONS

  ATOM NO.   TYPE          CHARGE      No. of ELECS.   s-Pop       p-Pop       
    1          O          -0.423802        6.4238     1.71834     4.70546
    2          H           0.212416        0.7876     0.78758
    3          H           0.211386        0.7886     0.78861
 DIPOLE           X         Y         Z       TOTAL
 POINT-CHG.     0.747     0.952    -0.325     1.253
 HYBRID         0.746     0.921    -0.318     1.227
 SUM            1.493     1.873    -0.643     2.480


          ATOMIC ORBITAL ELECTRON POPULATIONS

     Atom    s        px        py        pz   
    1  O   1.71834   1.33733   1.40281   1.96532
    2  H   0.78758
    3  H   0.78861

 **********************
 *                    *
 * JOB ENDED NORMALLY *
 *                    *
 **********************



 TOTAL JOB TIME:             0.05 SECONDS

 == MOPAC DONE ==


          MOPAC Job: "./h2oTraj/h2o_32.mop" ended normally on Jun  1, 2023, at 14:00.

rm: cannot remove ‘./h2oTraj/h2o_32.cim’: No such file or directory
rm: cannot remove ‘./h2oTraj/h2o_32.end’: No such file or directory
rm: cannot remove ‘./h2oTraj/h2o_32.log’: No such file or directory
rm: cannot remove ‘./h2oTraj/h2o_32.temp’: No such file or directory
rm: cannot remove ‘./h2oTraj/h2o_32.ple’: No such file or directory
rm: cannot remove ‘./h2oTraj/h2o_32.sts’: No such file or directory
