 *******************************************************************************
 ** Site#:    0         For non-commercial use only    Version 20.173L 64BITS **
 *******************************************************************************
 ** Cite this program as: MOPAC2016, Version: 20.173L, James J. P. Stewart,   **
 ** Stewart Computational Chemistry, web-site: HTTP://OpenMOPAC.net.          **
 *******************************************************************************
 **                                                                           **
 **                                MOPAC2016                                  **
 **                                                                           **
 *******************************************************************************

                              INDO CALCULATION RESULTS

 *******************************************************************************
 *  CALCULATION DONE:                                Thu Jun  1 14:01:01 2023  *
 *  INDO       - The INDO Hamiltonian to be used
 *
 *
 *
 *                 CHARGE ON SYSTEM = 0
 *
 *
 *
 *  C.I.=(N,M) - 2 DOUBLY FILLED LEVELS USED IN A C.I. INVOLVING 4 M.O.'S
 *  T=         - A TIME OF 172800.0 SECONDS REQUESTED
 *  DUMP=N     - RESTART FILE WRITTEN EVERY 7200.0 SECONDS REQUESTED
 *  RELSCF     - DEFAULT SCF CRITERION MULTIPLIED BY 0.0000
 *              (DEFAULT SCF CRITERION = 0.00010)
 *  ALLVEC     - PRINT ALL EIGENVECTORS
 **********
 *  WARNING: Specified print options may not behave as expected with INDO
 **********
 *******************************************************************************
INDO C.I.=(4,2) AllVEC CHARGE=0 RELSCF=0.000001


   ATOM   CHEMICAL          X               Y               Z
  NUMBER   SYMBOL      (ANGSTROMS)     (ANGSTROMS)     (ANGSTROMS)
 
     1       O         -1.05083591  *   0.47174536  *   0.02634259  *
     2       H         -0.10363233  *   0.37393728  *  -0.17245384  *
     3       H         -1.29906897  *   1.35398935  *  -0.24568255  *
 


          CARTESIAN COORDINATES 

    NO.       ATOM           X           Y           Z

     1         O         -1.0508      0.4717      0.0263
     2         H         -0.1036      0.3739     -0.1725
     3         H         -1.2991      1.3540     -0.2457

           Empirical Formula: H2 O  =     3 atoms



      MOLECULAR POINT GROUP   :   C2v 


      RHF CALCULATION, NO. OF DOUBLY OCCUPIED LEVELS = 4

 WARNING: INDO only performs single-point calculations
  SCF CRITERION =    0.1000E-09

 Summary of symmetry occupancy in each shell:

 SHELL     
    1    4
    v    2
 TOTAL   6




    ROOT NO.    1           2           3           4           5           6

           -40.70340   -19.84548   -14.60680   -12.80256     6.12302     7.99051
  
  
  S  O   1   0.83398     0.00595    -0.38986     0.00000    -0.38938    -0.02895
 PX  O   1   0.09950     0.59757     0.51189     0.22677    -0.32468     0.46275
 PY  O   1   0.12049    -0.49708     0.58930     0.34467    -0.30825    -0.42107
 PZ  O   1  -0.07036     0.03932    -0.35041     0.91092     0.19746     0.04412
  
  S  H   2   0.36664     0.44665     0.24281    -0.00000     0.58708    -0.51231
  
  S  H   3   0.37508    -0.44130     0.23866    -0.00000     0.51410     0.58594


 Reference determinate nber   1 is ALPHA 1 -   4
 SINGLE excitations FROM orbs   3 to   4 INTO orbs   5 to   6
 

 CI excitations=    5:        =  5
 The lowest    5 spin-adapted configurations of multiplicity=  1
     sym   eV   cm**-1 -dets- dipole oscilator X FRAG ....Excitations named from first reference determinate
                       tot  #  Debye  strength
 
   1      0.000      0.  1  1  2.4173 0.000000 0  0 (     )->       )
   2     10.995  88680.  1  1  0.3898 0.032879 1  1 (   4 )->   5   )
   3     11.993  96730.  1  1  0.8162 0.000198 1  1 (   4 )->   6   )
   4     13.590 109608.  1  1  0.7304 0.027311 1  1 (   3 )->   5   )
   5     14.634 118031.  1  1  0.3522 0.209979 1  1 (   3 )->   6   )

 Depression of ground-state after CI=          0. cm**-1 Energy=  -465.4646810 eV
 Dipole moment=  1.447068  1.664199 -0.989943 tot=  2.417344 Debyes


  CI trans.  energy frequency wavelength oscillator ---------polarization---------    dipole   ------components----- 
 st.  symm.    eV      cm-1       nm      strength       x          y         z       moment     x       y       z 

   2     10.9924934    88661.    112.79  0.032555   0.226772   0.344673   0.910920  0.638160  -0.407   0.485  -0.082
   3     11.9953162    96749.    103.36  0.000544   0.226769   0.344677   0.910919  0.947907   0.899   0.128  -0.272
   4     13.5886055   109600.     91.24  0.028367  -0.794695  -0.475224   0.377653  0.819659  -0.779  -0.104   0.233
   5     14.6349762   118039.     84.72  0.208853  -0.754667   0.653416  -0.059366  0.512770   0.384  -0.338   0.032
 
 Polarizability (au  ) xx=    1.48 xy=   -0.89 yy=    1.07 xz=    0.12 yz=    0.05 zz=    0.56
 Polarizability (A**3) xx=    0.22 xy=   -0.13 yy=    0.16 xz=    0.02 yz=    0.01 zz=    0.08
 ***********************************
 ***********************************
 CI Matrix
  1.0000000000  0.0000000000  0.0000000000  0.0000000000  0.0000000000 
  0.0000000000 -0.9988044474  0.0488843114 -0.0000001308  0.0000000042 
  0.0000000000 -0.0488843114 -0.9988044474 -0.0000000360 -0.0000001317 
  0.0000000000  0.0000001322  0.0000000255 -0.9995289193  0.0306910329 
  0.0000000000 -0.0000000063 -0.0000001326  0.0306910329  0.9995289193 
 ***********************************
 ***********************************
 
 
 Major CI contributions to CI states
 
State    1  0.0000     CI coeff  CI percent
    Config       1   1.00000000  1.00000000
 Total coeff printed             1.00000000
  
State    2 10.9925     CI coeff  CI percent
    Config       2  -0.99880445  0.99761032
    Config       3   0.04888431  0.00238968
 Total coeff printed             1.00000000
  
State    3 11.9953     CI coeff  CI percent
    Config       2  -0.04888431  0.00238968
    Config       3  -0.99880445  0.99761032
 Total coeff printed             1.00000000
  
State    4 13.5886     CI coeff  CI percent
    Config       4  -0.99952892  0.99905806
 Total coeff printed             0.99905806
  
State    5 14.6350     CI coeff  CI percent
    Config       5   0.99952892  0.99905806
 Total coeff printed             0.99905806
  

 -------------------------------------------------------------------------------
 INDO C.I.=(4,2) AllVEC CHARGE=0 RELSCF=0.000001




     1SCF WAS SPECIFIED, SO BFGS WAS NOT USED                 
     SCF FIELD WAS ACHIEVED                                   


                              INDO CALCULATION
                                                       MOPAC2016 (Version: 20.173L)
                                                       Thu Jun  1 14:01:01 2023




          FINAL HEAT OF FORMATION =      -8354.47164 KCAL/MOL =  -34955.10936 KJ/MOL


          TOTAL ENERGY            =       -369.38592 EV
          ELECTRONIC ENERGY       =       -465.46468 EV  POINT GROUP:     C2v 
          CORE-CORE REPULSION     =         96.07876 EV
          COSMO AREA              =         42.50 SQUARE ANGSTROMS
          COSMO VOLUME            =         25.23 CUBIC ANGSTROMS

          IONIZATION POTENTIAL    =         12.802561 EV
          HOMO LUMO ENERGIES (EV) =        -12.803  6.123
          NO. OF FILLED LEVELS    =          4
          MOLECULAR WEIGHT        =         18.0152

          MOLECULAR DIMENSIONS (Angstroms)

            Atom       Atom       Distance
            H     3    H     2     1.54756
            H     2    O     1     0.57557
            O     1    H     3     0.00000


          SCF CALCULATIONS        =          1
 
          WALL-CLOCK TIME         =          0.062 SECONDS
          COMPUTATION TIME        =          0.010 SECONDS




   ATOM   CHEMICAL          X               Y               Z
  NUMBER   SYMBOL      (ANGSTROMS)     (ANGSTROMS)     (ANGSTROMS)
 
     1       O         -1.05083591  *   0.47174536  *   0.02634259  *
     2       H         -0.10363233  *   0.37393728  *  -0.17245384  *
     3       H         -1.29906897  *   1.35398935  *  -0.24568255  *

                             CARTESIAN COORDINATES

   1    O       -1.050835912     0.471745357     0.026342592
   2    H       -0.103632332     0.373937283    -0.172453835
   3    H       -1.299068966     1.353989351    -0.245682553


           Empirical Formula: H2 O  =     3 atoms



      MOLECULAR POINT GROUP   :   C2v 


                EIGENVECTORS  


   Root No.       1         2         3         4         5         6

                 1 a1      1 b2      2 a1      1 b1      3 a1      2 b2  

               -40.703   -19.845   -14.607   -12.803     6.123     7.991
  
  S   O    1    0.8340    0.0059   -0.3899    0.0000   -0.3894   -0.0289
  Px  O    1    0.0995    0.5976    0.5119    0.2268   -0.3247    0.4627
  Py  O    1    0.1205   -0.4971    0.5893    0.3447   -0.3082   -0.4211
  Pz  O    1   -0.0704    0.0393   -0.3504    0.9109    0.1975    0.0441
  S   H    2    0.3666    0.4467    0.2428   -0.0000    0.5871   -0.5123
  S   H    3    0.3751   -0.4413    0.2387   -0.0000    0.5141    0.5859


              NET ATOMIC CHARGES AND DIPOLE CONTRIBUTIONS

  ATOM NO.   TYPE          CHARGE      No. of ELECS.   s-Pop       p-Pop       
    1          O          -0.429480        6.4295     1.69510     4.73438
    2          H           0.214239        0.7858     0.78576
    3          H           0.215241        0.7848     0.78476
 DIPOLE           X         Y         Z       TOTAL
 POINT-CHG.     0.718     0.811    -0.486     1.187
 HYBRID         0.729     0.853    -0.504     1.230
 SUM            1.447     1.664    -0.990     2.417


          ATOMIC ORBITAL ELECTRON POPULATIONS

     Atom    s        px        py        pz   
    1  O   1.69510   1.36090   1.45536   1.91812
    2  H   0.78576
    3  H   0.78476

 **********************
 *                    *
 * JOB ENDED NORMALLY *
 *                    *
 **********************



 TOTAL JOB TIME:             0.12 SECONDS

 == MOPAC DONE ==


          MOPAC Job: "./h2oTraj/h2o_58.mop" ended normally on Jun  1, 2023, at 14:01.

rm: cannot remove ‘./h2oTraj/h2o_58.cim’: No such file or directory
rm: cannot remove ‘./h2oTraj/h2o_58.end’: No such file or directory
rm: cannot remove ‘./h2oTraj/h2o_58.log’: No such file or directory
rm: cannot remove ‘./h2oTraj/h2o_58.temp’: No such file or directory
rm: cannot remove ‘./h2oTraj/h2o_58.ple’: No such file or directory
rm: cannot remove ‘./h2oTraj/h2o_58.sts’: No such file or directory
