 *******************************************************************************
 ** Site#:    0         For non-commercial use only    Version 20.173L 64BITS **
 *******************************************************************************
 ** Cite this program as: MOPAC2016, Version: 20.173L, James J. P. Stewart,   **
 ** Stewart Computational Chemistry, web-site: HTTP://OpenMOPAC.net.          **
 *******************************************************************************
 **                                                                           **
 **                                MOPAC2016                                  **
 **                                                                           **
 *******************************************************************************

                              INDO CALCULATION RESULTS

 *******************************************************************************
 *  CALCULATION DONE:                                Thu Jun  1 14:00:59 2023  *
 *  INDO       - The INDO Hamiltonian to be used
 *
 *
 *
 *                 CHARGE ON SYSTEM = 0
 *
 *
 *
 *  C.I.=(N,M) - 2 DOUBLY FILLED LEVELS USED IN A C.I. INVOLVING 4 M.O.'S
 *  T=         - A TIME OF 172800.0 SECONDS REQUESTED
 *  DUMP=N     - RESTART FILE WRITTEN EVERY 7200.0 SECONDS REQUESTED
 *  RELSCF     - DEFAULT SCF CRITERION MULTIPLIED BY 0.0000
 *              (DEFAULT SCF CRITERION = 0.00010)
 *  ALLVEC     - PRINT ALL EIGENVECTORS
 **********
 *  WARNING: Specified print options may not behave as expected with INDO
 **********
 *******************************************************************************
INDO C.I.=(4,2) AllVEC CHARGE=0 RELSCF=0.000001


   ATOM   CHEMICAL          X               Y               Z
  NUMBER   SYMBOL      (ANGSTROMS)     (ANGSTROMS)     (ANGSTROMS)
 
     1       O         -1.05017337  *   0.46356892  *   0.01865136  *
     2       H         -0.10941211  *   0.45664766  *  -0.15367363  *
     3       H         -1.30380571  *   1.40106377  *  -0.14237967  *
 


          CARTESIAN COORDINATES 

    NO.       ATOM           X           Y           Z

     1         O         -1.0502      0.4636      0.0187
     2         H         -0.1094      0.4566     -0.1537
     3         H         -1.3038      1.4011     -0.1424

           Empirical Formula: H2 O  =     3 atoms



      MOLECULAR POINT GROUP   :   C2v 


      RHF CALCULATION, NO. OF DOUBLY OCCUPIED LEVELS = 4

 WARNING: INDO only performs single-point calculations
  SCF CRITERION =    0.1000E-09

 Summary of symmetry occupancy in each shell:

 SHELL     
    1    4
    v    2
 TOTAL   6




    ROOT NO.    1           2           3           4           5           6

           -40.67783   -19.55696   -14.78345   -12.82238     6.13702     7.76985
  
  
  S  O   1   0.83244    -0.00997    -0.40022    -0.00000    -0.37930    -0.05392
 PX  O   1   0.10818     0.61990     0.49520     0.17756    -0.22671    -0.52524
 PY  O   1   0.13042    -0.47653     0.64562     0.21307    -0.42946     0.33053
 PZ  O   1  -0.04892    -0.00888    -0.23469     0.96077     0.13714     0.02377
  
  S  H   2   0.37834     0.43641     0.24396     0.00000     0.47351     0.61861
  
  S  H   3   0.36442    -0.44498     0.25137     0.00000     0.61423    -0.47825


 Reference determinate nber   1 is ALPHA 1 -   4
 SINGLE excitations FROM orbs   3 to   4 INTO orbs   5 to   6
 

 CI excitations=    5:        =  5
 The lowest    5 spin-adapted configurations of multiplicity=  1
     sym   eV   cm**-1 -dets- dipole oscilator X FRAG ....Excitations named from first reference determinate
                       tot  #  Debye  strength
 
   1      0.000      0.  1  1  2.4705 0.000000 0  0 (     )->       )
   2     10.977  88534.  1  1  0.7000 0.031148 1  1 (   4 )->   5   )
   3     11.829  95411.  1  1  0.9472 0.000678 1  1 (   4 )->   6   )
   4     13.805 111346.  1  1  0.9149 0.040430 1  1 (   3 )->   5   )
   5     14.660 118243.  1  1  0.6597 0.214634 1  1 (   3 )->   6   )

 Depression of ground-state after CI=          0. cm**-1 Energy=  -464.9552606 eV
 Dipole moment=  1.444999  1.883243 -0.684685 tot=  2.470510 Debyes


  CI trans.  energy frequency wavelength oscillator ---------polarization---------    dipole   ------components----- 
 st.  symm.    eV      cm-1       nm      strength       x          y         z       moment     x       y       z 

   2     10.9681266    88464.    113.04  0.029939   0.177557   0.213065   0.960769  1.184654   1.009  -0.619  -0.049
   3     11.8380913    95481.    104.73  0.001957   0.177554   0.213067   0.960769  1.316858  -0.492   1.209  -0.177
   4     13.8008712   111312.     89.84  0.045100  -0.148987  -0.959209   0.240253  1.187060   0.447  -1.088   0.159
   5     14.6644628   118277.     84.55  0.209721   0.825818  -0.563255  -0.027707  1.006243  -0.824   0.577   0.024
 
 Polarizability (au  ) xx=    1.51 xy=   -0.91 yy=    1.20 xz=    0.03 yz=    0.03 zz=    0.57
 Polarizability (A**3) xx=    0.22 xy=   -0.13 yy=    0.18 xz=    0.00 yz=    0.00 zz=    0.08
 ***********************************
 ***********************************
 CI Matrix
  1.0000000000  0.0000000000  0.0000000000  0.0000000000  0.0000000000 
  0.0000000000 -0.9949968602  0.0999061970  0.0000001206 -0.0000000022 
  0.0000000000 -0.0999061970 -0.9949968602  0.0000001240  0.0000001446 
  0.0000000000 -0.0000001312 -0.0000001009 -0.9975234534  0.0703346284 
  0.0000000000  0.0000000215  0.0000001516  0.0703346284  0.9975234534 
 ***********************************
 ***********************************
 
 
 Major CI contributions to CI states
 
State    1  0.0000     CI coeff  CI percent
    Config       1   1.00000000  1.00000000
 Total coeff printed             1.00000000
  
State    2 10.9681     CI coeff  CI percent
    Config       2  -0.99499686  0.99001875
    Config       3   0.09990620  0.00998125
 Total coeff printed             1.00000000
  
State    3 11.8381     CI coeff  CI percent
    Config       2  -0.09990620  0.00998125
    Config       3  -0.99499686  0.99001875
 Total coeff printed             1.00000000
  
State    4 13.8009     CI coeff  CI percent
    Config       4  -0.99752345  0.99505304
    Config       5   0.07033463  0.00494696
 Total coeff printed             1.00000000
  
State    5 14.6645     CI coeff  CI percent
    Config       4   0.07033463  0.00494696
    Config       5   0.99752345  0.99505304
 Total coeff printed             1.00000000
  

 -------------------------------------------------------------------------------
 INDO C.I.=(4,2) AllVEC CHARGE=0 RELSCF=0.000001




     1SCF WAS SPECIFIED, SO BFGS WAS NOT USED                 
     SCF FIELD WAS ACHIEVED                                   


                              INDO CALCULATION
                                                       MOPAC2016 (Version: 20.173L)
                                                       Thu Jun  1 14:01:00 2023




          FINAL HEAT OF FORMATION =      -8346.93293 KCAL/MOL =  -34923.56740 KJ/MOL


          TOTAL ENERGY            =       -369.05901 EV
          ELECTRONIC ENERGY       =       -464.95526 EV  POINT GROUP:     C2v 
          CORE-CORE REPULSION     =         95.89625 EV
          COSMO AREA              =         42.71 SQUARE ANGSTROMS
          COSMO VOLUME            =         25.37 CUBIC ANGSTROMS

          IONIZATION POTENTIAL    =         12.822380 EV
          HOMO LUMO ENERGIES (EV) =        -12.822  6.137
          NO. OF FILLED LEVELS    =          4
          MOLECULAR WEIGHT        =         18.0152

          MOLECULAR DIMENSIONS (Angstroms)

            Atom       Atom       Distance
            H     3    H     2     1.52270
            H     2    O     1     0.60166
            O     1    H     3     0.00000


          SCF CALCULATIONS        =          1
 
          WALL-CLOCK TIME         =          0.277 SECONDS
          COMPUTATION TIME        =          0.012 SECONDS




   ATOM   CHEMICAL          X               Y               Z
  NUMBER   SYMBOL      (ANGSTROMS)     (ANGSTROMS)     (ANGSTROMS)
 
     1       O         -1.05017337  *   0.46356892  *   0.01865136  *
     2       H         -0.10941211  *   0.45664766  *  -0.15367363  *
     3       H         -1.30380571  *   1.40106377  *  -0.14237967  *

                             CARTESIAN COORDINATES

   1    O       -1.050173372     0.463568915     0.018651358
   2    H       -0.109412106     0.456647662    -0.153673628
   3    H       -1.303805711     1.401063767    -0.142379668


           Empirical Formula: H2 O  =     3 atoms



      MOLECULAR POINT GROUP   :   C2v 


                EIGENVECTORS  


   Root No.       1         2         3         4         5         6

                 1 a1      1 b2      2 a1      1 b1      3 a1      2 b2  

               -40.678   -19.557   -14.783   -12.822     6.137     7.770
  
  S   O    1    0.8324   -0.0100   -0.4002   -0.0000   -0.3793   -0.0539
  Px  O    1    0.1082    0.6199    0.4952    0.1776   -0.2267   -0.5252
  Py  O    1    0.1304   -0.4765    0.6456    0.2131   -0.4295    0.3305
  Pz  O    1   -0.0489   -0.0089   -0.2347    0.9608    0.1371    0.0238
  S   H    2    0.3783    0.4364    0.2440    0.0000    0.4735    0.6186
  S   H    3    0.3644   -0.4450    0.2514    0.0000    0.6142   -0.4783


              NET ATOMIC CHARGES AND DIPOLE CONTRIBUTIONS

  ATOM NO.   TYPE          CHARGE      No. of ELECS.   s-Pop       p-Pop       
    1          O          -0.425790        6.4258     1.70645     4.71934
    2          H           0.213777        0.7862     0.78622
    3          H           0.212013        0.7880     0.78799
 DIPOLE           X         Y         Z       TOTAL
 POINT-CHG.     0.708     0.948    -0.341     1.231
 HYBRID         0.737     0.936    -0.344     1.240
 SUM            1.445     1.883    -0.685     2.471


          ATOMIC ORBITAL ELECTRON POPULATIONS

     Atom    s        px        py        pz   
    1  O   1.70645   1.34545   1.41263   1.96126
    2  H   0.78622
    3  H   0.78799

 **********************
 *                    *
 * JOB ENDED NORMALLY *
 *                    *
 **********************



 TOTAL JOB TIME:             0.56 SECONDS

 == MOPAC DONE ==


          MOPAC Job: "./h2oTraj/h2o_39.mop" ended normally on Jun  1, 2023, at 14:01.

rm: cannot remove ‘./h2oTraj/h2o_39.cim’: No such file or directory
rm: cannot remove ‘./h2oTraj/h2o_39.end’: No such file or directory
rm: cannot remove ‘./h2oTraj/h2o_39.log’: No such file or directory
rm: cannot remove ‘./h2oTraj/h2o_39.temp’: No such file or directory
rm: cannot remove ‘./h2oTraj/h2o_39.ple’: No such file or directory
rm: cannot remove ‘./h2oTraj/h2o_39.sts’: No such file or directory
