 *******************************************************************************
 ** Site#:    0         For non-commercial use only    Version 20.173L 64BITS **
 *******************************************************************************
 ** Cite this program as: MOPAC2016, Version: 20.173L, James J. P. Stewart,   **
 ** Stewart Computational Chemistry, web-site: HTTP://OpenMOPAC.net.          **
 *******************************************************************************
 **                                                                           **
 **                                MOPAC2016                                  **
 **                                                                           **
 *******************************************************************************

                              INDO CALCULATION RESULTS

 *******************************************************************************
 *  CALCULATION DONE:                                Thu Jun  1 14:00:56 2023  *
 *  INDO       - The INDO Hamiltonian to be used
 *
 *
 *
 *                 CHARGE ON SYSTEM = 0
 *
 *
 *
 *  C.I.=(N,M) - 2 DOUBLY FILLED LEVELS USED IN A C.I. INVOLVING 4 M.O.'S
 *  T=         - A TIME OF 172800.0 SECONDS REQUESTED
 *  DUMP=N     - RESTART FILE WRITTEN EVERY 7200.0 SECONDS REQUESTED
 *  RELSCF     - DEFAULT SCF CRITERION MULTIPLIED BY 0.0000
 *              (DEFAULT SCF CRITERION = 0.00010)
 *  ALLVEC     - PRINT ALL EIGENVECTORS
 **********
 *  WARNING: Specified print options may not behave as expected with INDO
 **********
 *******************************************************************************
INDO C.I.=(4,2) AllVEC CHARGE=0 RELSCF=0.000001


   ATOM   CHEMICAL          X               Y               Z
  NUMBER   SYMBOL      (ANGSTROMS)     (ANGSTROMS)     (ANGSTROMS)
 
     1       O         -1.05093630  *   0.46411095  *   0.00864678  *
     2       H         -0.05602237  *   0.45582631  *  -0.07147804  *
     3       H         -1.34508546  *   1.39328132  *  -0.06577248  *
 


          CARTESIAN COORDINATES 

    NO.       ATOM           X           Y           Z

     1         O         -1.0509      0.4641      0.0086
     2         H         -0.0560      0.4558     -0.0715
     3         H         -1.3451      1.3933     -0.0658

           Empirical Formula: H2 O  =     3 atoms



      MOLECULAR POINT GROUP   :   C2v 


      RHF CALCULATION, NO. OF DOUBLY OCCUPIED LEVELS = 4

 WARNING: INDO only performs single-point calculations
  SCF CRITERION =    0.1000E-09

 Summary of symmetry occupancy in each shell:

 SHELL     
    1    4
    v    2
 TOTAL   6




    ROOT NO.    1           2           3           4           5           6

           -40.14801   -19.72329   -14.56146   -12.78518     5.73896     7.69838
  
  
  S  O   1   0.83967     0.00784    -0.38466     0.00000    -0.38184    -0.03357
 PX  O   1   0.09471     0.62307     0.50390     0.08070    -0.32912     0.48381
 PY  O   1   0.13652    -0.46265     0.68128     0.10493    -0.36019    -0.40301
 PZ  O   1  -0.02216    -0.00175    -0.11315     0.99120     0.06493     0.00328
  
  S  H   2   0.35995     0.44898     0.24896    -0.00000     0.59424    -0.50374
  
  S  H   3   0.37053    -0.44282     0.24328    -0.00000     0.50873     0.59045


 Reference determinate nber   1 is ALPHA 1 -   4
 SINGLE excitations FROM orbs   3 to   4 INTO orbs   5 to   6
 

 CI excitations=    5:        =  5
 The lowest    5 spin-adapted configurations of multiplicity=  1
     sym   eV   cm**-1 -dets- dipole oscilator X FRAG ....Excitations named from first reference determinate
                       tot  #  Debye  strength
 
   1      0.000      0.  1  1  2.4153 0.000000 0  0 (     )->       )
   2     10.617  85635.  1  1  0.4560 0.030532 1  1 (   4 )->   5   )
   3     11.718  94516.  1  1  0.8327 0.000260 1  1 (   4 )->   6   )
   4     13.259 106940.  1  1  0.7608 0.031114 1  1 (   3 )->   5   )
   5     14.355 115782.  1  1  0.4237 0.219304 1  1 (   3 )->   6   )

 Depression of ground-state after CI=          0. cm**-1 Energy=  -463.1520277 eV
 Dipole moment=  1.423654  1.924756 -0.319675 tot=  2.415298 Debyes


  CI trans.  energy frequency wavelength oscillator ---------polarization---------    dipole   ------components----- 
 st.  symm.    eV      cm-1       nm      strength       x          y         z       moment     x       y       z 

   2     10.6145415    85612.    116.81  0.030172   0.080700   0.104934   0.991199  0.723344  -0.518   0.505  -0.011
   3     11.7213456    94539.    105.78  0.000649   0.080698   0.104935   0.991200  0.990034   0.970   0.171  -0.097
   4     13.2574921   106929.     93.52  0.032580  -0.817032  -0.562638   0.126084  0.877087  -0.863  -0.131   0.084
   5     14.3564536   115793.     86.36  0.217733  -0.787875   0.615834  -0.001050  0.609131   0.491  -0.361  -0.002
 
 Polarizability (au  ) xx=    1.74 xy=   -0.94 yy=    1.03 xz=    0.01 yz=    0.03 zz=    0.60
 Polarizability (A**3) xx=    0.26 xy=   -0.14 yy=    0.15 xz=    0.00 yz=    0.00 zz=    0.09
 ***********************************
 ***********************************
 CI Matrix
  1.0000000000  0.0000000000  0.0000000000  0.0000000000  0.0000000000 
  0.0000000000 -0.9987030973  0.0509129003 -0.0000000574  0.0000000096 
  0.0000000000 -0.0509129003 -0.9987030973  0.0000000669 -0.0000000451 
  0.0000000000  0.0000000541 -0.0000000713 -0.9993937942  0.0348144232 
  0.0000000000  0.0000000054 -0.0000000430  0.0348144232  0.9993937942 
 ***********************************
 ***********************************
 
 
 Major CI contributions to CI states
 
State    1  0.0000     CI coeff  CI percent
    Config       1   1.00000000  1.00000000
 Total coeff printed             1.00000000
  
State    2 10.6145     CI coeff  CI percent
    Config       2  -0.99870310  0.99740788
    Config       3   0.05091290  0.00259212
 Total coeff printed             1.00000000
  
State    3 11.7213     CI coeff  CI percent
    Config       2  -0.05091290  0.00259212
    Config       3  -0.99870310  0.99740788
 Total coeff printed             1.00000000
  
State    4 13.2575     CI coeff  CI percent
    Config       4  -0.99939379  0.99878796
 Total coeff printed             0.99878796
  
State    5 14.3565     CI coeff  CI percent
    Config       5   0.99939379  0.99878796
 Total coeff printed             0.99878796
  

 -------------------------------------------------------------------------------
 INDO C.I.=(4,2) AllVEC CHARGE=0 RELSCF=0.000001




     1SCF WAS SPECIFIED, SO BFGS WAS NOT USED                 
     SCF FIELD WAS ACHIEVED                                   


                              INDO CALCULATION
                                                       MOPAC2016 (Version: 20.173L)
                                                       Thu Jun  1 14:00:56 2023




          FINAL HEAT OF FORMATION =      -8324.23153 KCAL/MOL =  -34828.58472 KJ/MOL


          TOTAL ENERGY            =       -368.07458 EV
          ELECTRONIC ENERGY       =       -463.15203 EV  POINT GROUP:     C2v 
          CORE-CORE REPULSION     =         95.07745 EV
          COSMO AREA              =         42.98 SQUARE ANGSTROMS
          COSMO VOLUME            =         25.56 CUBIC ANGSTROMS

          IONIZATION POTENTIAL    =         12.785176 EV
          HOMO LUMO ENERGIES (EV) =        -12.785  5.739
          NO. OF FILLED LEVELS    =          4
          MOLECULAR WEIGHT        =         18.0152

          MOLECULAR DIMENSIONS (Angstroms)

            Atom       Atom       Distance
            H     3    H     2     1.59391
            H     2    O     1     0.58359
            H     2    O     1     0.00000


          SCF CALCULATIONS        =          1
 
          WALL-CLOCK TIME         =          0.035 SECONDS
          COMPUTATION TIME        =          0.011 SECONDS




   ATOM   CHEMICAL          X               Y               Z
  NUMBER   SYMBOL      (ANGSTROMS)     (ANGSTROMS)     (ANGSTROMS)
 
     1       O         -1.05093630  *   0.46411095  *   0.00864678  *
     2       H         -0.05602237  *   0.45582631  *  -0.07147804  *
     3       H         -1.34508546  *   1.39328132  *  -0.06577248  *

                             CARTESIAN COORDINATES

   1    O       -1.050936301     0.464110954     0.008646783
   2    H       -0.056022370     0.455826308    -0.071478044
   3    H       -1.345085458     1.393281324    -0.065772482


           Empirical Formula: H2 O  =     3 atoms



      MOLECULAR POINT GROUP   :   C2v 


                EIGENVECTORS  


   Root No.       1         2         3         4         5         6

                 1 a1      1 b2      2 a1      1 b1      3 a1      2 b2  

               -40.148   -19.723   -14.561   -12.785     5.739     7.698
  
  S   O    1    0.8397    0.0078   -0.3847    0.0000   -0.3818   -0.0336
  Px  O    1    0.0947    0.6231    0.5039    0.0807   -0.3291    0.4838
  Py  O    1    0.1365   -0.4627    0.6813    0.1049   -0.3602   -0.4030
  Pz  O    1   -0.0222   -0.0017   -0.1132    0.9912    0.0649    0.0033
  S   H    2    0.3599    0.4490    0.2490   -0.0000    0.5942   -0.5037
  S   H    3    0.3705   -0.4428    0.2433   -0.0000    0.5087    0.5904


              NET ATOMIC CHARGES AND DIPOLE CONTRIBUTIONS

  ATOM NO.   TYPE          CHARGE      No. of ELECS.   s-Pop       p-Pop       
    1          O          -0.428614        6.4286     1.70615     4.72246
    2          H           0.213749        0.7863     0.78625
    3          H           0.214865        0.7851     0.78514
 DIPOLE           X         Y         Z       TOTAL
 POINT-CHG.     0.718     0.950    -0.159     1.202
 HYBRID         0.706     0.974    -0.161     1.214
 SUM            1.424     1.925    -0.320     2.415


          ATOMIC ORBITAL ELECTRON POPULATIONS

     Atom    s        px        py        pz   
    1  O   1.70615   1.31523   1.41569   1.99155
    2  H   0.78625
    3  H   0.78514

 **********************
 *                    *
 * JOB ENDED NORMALLY *
 *                    *
 **********************



 TOTAL JOB TIME:             0.07 SECONDS

 == MOPAC DONE ==


          MOPAC Job: "./h2oTraj/h2o_10.mop" ended normally on Jun  1, 2023, at 14:00.

rm: cannot remove ‘./h2oTraj/h2o_10.cim’: No such file or directory
rm: cannot remove ‘./h2oTraj/h2o_10.end’: No such file or directory
rm: cannot remove ‘./h2oTraj/h2o_10.log’: No such file or directory
rm: cannot remove ‘./h2oTraj/h2o_10.temp’: No such file or directory
rm: cannot remove ‘./h2oTraj/h2o_10.ple’: No such file or directory
rm: cannot remove ‘./h2oTraj/h2o_10.sts’: No such file or directory
