 *******************************************************************************
 ** Site#:    0         For non-commercial use only    Version 20.173L 64BITS **
 *******************************************************************************
 ** Cite this program as: MOPAC2016, Version: 20.173L, James J. P. Stewart,   **
 ** Stewart Computational Chemistry, web-site: HTTP://OpenMOPAC.net.          **
 *******************************************************************************
 **                                                                           **
 **                                MOPAC2016                                  **
 **                                                                           **
 *******************************************************************************

                              INDO CALCULATION RESULTS

 *******************************************************************************
 *  CALCULATION DONE:                                Thu Jun  1 14:01:06 2023  *
 *  INDO       - The INDO Hamiltonian to be used
 *
 *
 *
 *                 CHARGE ON SYSTEM = 0
 *
 *
 *
 *  C.I.=(N,M) - 2 DOUBLY FILLED LEVELS USED IN A C.I. INVOLVING 4 M.O.'S
 *  T=         - A TIME OF 172800.0 SECONDS REQUESTED
 *  DUMP=N     - RESTART FILE WRITTEN EVERY 7200.0 SECONDS REQUESTED
 *  RELSCF     - DEFAULT SCF CRITERION MULTIPLIED BY 0.0000
 *              (DEFAULT SCF CRITERION = 0.00010)
 *  ALLVEC     - PRINT ALL EIGENVECTORS
 **********
 *  WARNING: Specified print options may not behave as expected with INDO
 **********
 *******************************************************************************
INDO C.I.=(4,2) AllVEC CHARGE=0 RELSCF=0.000001


   ATOM   CHEMICAL          X               Y               Z
  NUMBER   SYMBOL      (ANGSTROMS)     (ANGSTROMS)     (ANGSTROMS)
 
     1       O         -1.04790806  *   0.47338278  *   0.03256556  *
     2       H         -0.11095201  *   0.35855902  *  -0.22501217  *
     3       H         -1.33822308  *   1.34337674  *  -0.29190154  *
 


          CARTESIAN COORDINATES 

    NO.       ATOM           X           Y           Z

     1         O         -1.0479      0.4734      0.0326
     2         H         -0.1110      0.3586     -0.2250
     3         H         -1.3382      1.3434     -0.2919

           Empirical Formula: H2 O  =     3 atoms



      MOLECULAR POINT GROUP   :   C2v 


      RHF CALCULATION, NO. OF DOUBLY OCCUPIED LEVELS = 4

 WARNING: INDO only performs single-point calculations
  SCF CRITERION =    0.1000E-09

 Summary of symmetry occupancy in each shell:

 SHELL     
    1    4
    v    2
 TOTAL   6




    ROOT NO.    1           2           3           4           5           6

           -40.41564   -19.82456   -14.55861   -12.79029     5.92737     7.86419
  
  
  S  O   1   0.83714     0.00206    -0.38573     0.00000    -0.38770    -0.00931
 PX  O   1   0.09314     0.60403     0.47821     0.28808    -0.28309     0.48441
 PY  O   1   0.11182    -0.48697     0.56350     0.41754    -0.31215    -0.40131
 PZ  O   1  -0.08531     0.03402    -0.43288     0.86178     0.24587     0.03251
  
  S  H   2   0.36649     0.44632     0.24322     0.00000     0.56463    -0.53713
  
  S  H   3   0.36935    -0.44458     0.24176    -0.00000     0.54115     0.56092


 Reference determinate nber   1 is ALPHA 1 -   4
 SINGLE excitations FROM orbs   3 to   4 INTO orbs   5 to   6
 

 CI excitations=    5:        =  5
 The lowest    5 spin-adapted configurations of multiplicity=  1
     sym   eV   cm**-1 -dets- dipole oscilator X FRAG ....Excitations named from first reference determinate
                       tot  #  Debye  strength
 
   1      0.000      0.  1  1  2.4087 0.000000 0  0 (     )->       )
   2     10.809  87180.  1  1  0.1618 0.032044 1  1 (   4 )->   5   )
   3     11.866  95702.  1  1  0.7483 0.000020 1  1 (   4 )->   6   )
   4     13.393 108024.  1  1  0.6445 0.026538 1  1 (   3 )->   5   )
   5     14.479 116784.  1  1  0.1155 0.214876 1  1 (   3 )->   6   )

 Depression of ground-state after CI=          0. cm**-1 Energy=  -464.3332496 eV
 Dipole moment=  1.345057  1.584545 -1.217350 tot=  2.408714 Debyes


  CI trans.  energy frequency wavelength oscillator ---------polarization---------    dipole   ------components----- 
 st.  symm.    eV      cm-1       nm      strength       x          y         z       moment     x       y       z 

   2     10.8086659    87178.    114.71  0.032014   0.288081   0.417538   0.861784  0.228696  -0.098   0.197  -0.063
   3     11.8657820    95704.    104.49  0.000053   0.288079   0.417545   0.861781  0.764066   0.562   0.366  -0.365
   4     13.3931460   108023.     92.57  0.026647  -0.630965  -0.594196   0.498812  0.655712  -0.486  -0.310   0.313
   5     14.4794094   116785.     85.63  0.214759  -0.774069   0.631345  -0.047129  0.167328   0.130  -0.105   0.007
 
 Polarizability (au  ) xx=    1.55 xy=   -0.91 yy=    1.13 xz=    0.13 yz=    0.05 zz=    0.54
 Polarizability (A**3) xx=    0.23 xy=   -0.14 yy=    0.17 xz=    0.02 yz=    0.01 zz=    0.08
 ***********************************
 ***********************************
 CI Matrix
  1.0000000000  0.0000000000  0.0000000000  0.0000000000  0.0000000000 
  0.0000000000 -0.9998881191  0.0149582509 -0.0000000504 -0.0000000130 
  0.0000000000 -0.0149582509 -0.9998881191 -0.0000001388 -0.0000000539 
  0.0000000000  0.0000000524  0.0000001375 -0.9999535208  0.0096413800 
  0.0000000000 -0.0000000143 -0.0000000550  0.0096413800  0.9999535208 
 ***********************************
 ***********************************
 
 
 Major CI contributions to CI states
 
State    1  0.0000     CI coeff  CI percent
    Config       1   1.00000000  1.00000000
 Total coeff printed             1.00000000
  
State    2 10.8087     CI coeff  CI percent
    Config       2  -0.99988812  0.99977625
 Total coeff printed             0.99977625
  
State    3 11.8658     CI coeff  CI percent
    Config       3  -0.99988812  0.99977625
 Total coeff printed             0.99977625
  
State    4 13.3931     CI coeff  CI percent
    Config       4  -0.99995352  0.99990704
 Total coeff printed             0.99990704
  
State    5 14.4794     CI coeff  CI percent
    Config       5   0.99995352  0.99990704
 Total coeff printed             0.99990704
  

 -------------------------------------------------------------------------------
 INDO C.I.=(4,2) AllVEC CHARGE=0 RELSCF=0.000001




     1SCF WAS SPECIFIED, SO BFGS WAS NOT USED                 
     SCF FIELD WAS ACHIEVED                                   


                              INDO CALCULATION
                                                       MOPAC2016 (Version: 20.173L)
                                                       Thu Jun  1 14:01:07 2023




          FINAL HEAT OF FORMATION =      -8339.82690 KCAL/MOL =  -34893.83575 KJ/MOL


          TOTAL ENERGY            =       -368.75086 EV
          ELECTRONIC ENERGY       =       -464.33325 EV  POINT GROUP:     C2v 
          CORE-CORE REPULSION     =         95.58239 EV
          COSMO AREA              =         42.64 SQUARE ANGSTROMS
          COSMO VOLUME            =         25.35 CUBIC ANGSTROMS

          IONIZATION POTENTIAL    =         12.790292 EV
          HOMO LUMO ENERGIES (EV) =        -12.790  5.927
          NO. OF FILLED LEVELS    =          4
          MOLECULAR WEIGHT        =         18.0152

          MOLECULAR DIMENSIONS (Angstroms)

            Atom       Atom       Distance
            H     3    H     2     1.57497
            H     2    O     1     0.57601
            H     2    H     3     0.00000


          SCF CALCULATIONS        =          1
 
          WALL-CLOCK TIME         =          0.031 SECONDS
          COMPUTATION TIME        =          0.011 SECONDS




   ATOM   CHEMICAL          X               Y               Z
  NUMBER   SYMBOL      (ANGSTROMS)     (ANGSTROMS)     (ANGSTROMS)
 
     1       O         -1.04790806  *   0.47338278  *   0.03256556  *
     2       H         -0.11095201  *   0.35855902  *  -0.22501217  *
     3       H         -1.33822308  *   1.34337674  *  -0.29190154  *

                             CARTESIAN COORDINATES

   1    O       -1.047908063     0.473382782     0.032565563
   2    H       -0.110952007     0.358559024    -0.225012165
   3    H       -1.338223082     1.343376738    -0.291901541


           Empirical Formula: H2 O  =     3 atoms



      MOLECULAR POINT GROUP   :   C2v 


                EIGENVECTORS  


   Root No.       1         2         3         4         5         6

                 1 a1      1 b2      2 a1      1 b1      3 a1      2 b2  

               -40.416   -19.825   -14.559   -12.790     5.927     7.864
  
  S   O    1    0.8371    0.0021   -0.3857    0.0000   -0.3877   -0.0093
  Px  O    1    0.0931    0.6040    0.4782    0.2881   -0.2831    0.4844
  Py  O    1    0.1118   -0.4870    0.5635    0.4175   -0.3122   -0.4013
  Pz  O    1   -0.0853    0.0340   -0.4329    0.8618    0.2459    0.0325
  S   H    2    0.3665    0.4463    0.2432    0.0000    0.5646   -0.5371
  S   H    3    0.3693   -0.4446    0.2418   -0.0000    0.5412    0.5609


              NET ATOMIC CHARGES AND DIPOLE CONTRIBUTIONS

  ATOM NO.   TYPE          CHARGE      No. of ELECS.   s-Pop       p-Pop       
    1          O          -0.429614        6.4296     1.69921     4.73041
    2          H           0.214649        0.7854     0.78535
    3          H           0.214965        0.7850     0.78504
 DIPOLE           X         Y         Z       TOTAL
 POINT-CHG.     0.666     0.780    -0.601     1.189
 HYBRID         0.679     0.805    -0.617     1.220
 SUM            1.345     1.585    -1.217     2.409


          ATOMIC ORBITAL ELECTRON POPULATIONS

     Atom    s        px        py        pz   
    1  O   1.69921   1.37041   1.48302   1.87698
    2  H   0.78535
    3  H   0.78504

 **********************
 *                    *
 * JOB ENDED NORMALLY *
 *                    *
 **********************



 TOTAL JOB TIME:             0.06 SECONDS

 == MOPAC DONE ==


          MOPAC Job: "./h2oTraj/h2o_98.mop" ended normally on Jun  1, 2023, at 14:01.

rm: cannot remove ‘./h2oTraj/h2o_98.cim’: No such file or directory
rm: cannot remove ‘./h2oTraj/h2o_98.end’: No such file or directory
rm: cannot remove ‘./h2oTraj/h2o_98.log’: No such file or directory
rm: cannot remove ‘./h2oTraj/h2o_98.temp’: No such file or directory
rm: cannot remove ‘./h2oTraj/h2o_98.ple’: No such file or directory
rm: cannot remove ‘./h2oTraj/h2o_98.sts’: No such file or directory
