 *******************************************************************************
 ** Site#:    0         For non-commercial use only    Version 20.173L 64BITS **
 *******************************************************************************
 ** Cite this program as: MOPAC2016, Version: 20.173L, James J. P. Stewart,   **
 ** Stewart Computational Chemistry, web-site: HTTP://OpenMOPAC.net.          **
 *******************************************************************************
 **                                                                           **
 **                                MOPAC2016                                  **
 **                                                                           **
 *******************************************************************************

                              INDO CALCULATION RESULTS

 *******************************************************************************
 *  CALCULATION DONE:                                Thu Jun  1 14:00:57 2023  *
 *  INDO       - The INDO Hamiltonian to be used
 *
 *
 *
 *                 CHARGE ON SYSTEM = 0
 *
 *
 *
 *  C.I.=(N,M) - 2 DOUBLY FILLED LEVELS USED IN A C.I. INVOLVING 4 M.O.'S
 *  T=         - A TIME OF 172800.0 SECONDS REQUESTED
 *  DUMP=N     - RESTART FILE WRITTEN EVERY 7200.0 SECONDS REQUESTED
 *  RELSCF     - DEFAULT SCF CRITERION MULTIPLIED BY 0.0000
 *              (DEFAULT SCF CRITERION = 0.00010)
 *  ALLVEC     - PRINT ALL EIGENVECTORS
 **********
 *  WARNING: Specified print options may not behave as expected with INDO
 **********
 *******************************************************************************
INDO C.I.=(4,2) AllVEC CHARGE=0 RELSCF=0.000001


   ATOM   CHEMICAL          X               Y               Z
  NUMBER   SYMBOL      (ANGSTROMS)     (ANGSTROMS)     (ANGSTROMS)
 
     1       O         -1.05213393  *   0.46509177  *   0.01627634  *
     2       H         -0.11847010  *   0.44130832  *  -0.13520167  *
     3       H         -1.26362769  *   1.39223085  *  -0.12315300  *
 


          CARTESIAN COORDINATES 

    NO.       ATOM           X           Y           Z

     1         O         -1.0521      0.4651      0.0163
     2         H         -0.1185      0.4413     -0.1352
     3         H         -1.2636      1.3922     -0.1232

           Empirical Formula: H2 O  =     3 atoms



      MOLECULAR POINT GROUP   :   C2v 


      RHF CALCULATION, NO. OF DOUBLY OCCUPIED LEVELS = 4

 WARNING: INDO only performs single-point calculations
  SCF CRITERION =    0.1000E-09

 Summary of symmetry occupancy in each shell:

 SHELL     
    1    4
    v    2
 TOTAL   6




    ROOT NO.    1           2           3           4           5           6

           -41.08871   -19.62479   -14.81868   -12.83348     6.43284     7.95590
  
  
  S  O   1   0.82822    -0.00504    -0.40433     0.00000    -0.38677    -0.03097
 PX  O   1   0.11241     0.60654     0.51939     0.16198    -0.27009    -0.50052
 PY  O   1   0.13248    -0.49635     0.63643     0.18278    -0.40447     0.36611
 PZ  O   1  -0.04375    -0.00776    -0.20672     0.96972     0.12136     0.01460
  
  S  H   2   0.37913     0.43671     0.24207    -0.00000     0.50564     0.59269
  
  S  H   3   0.37178    -0.44153     0.24572    -0.00000     0.58606    -0.51282


 Reference determinate nber   1 is ALPHA 1 -   4
 SINGLE excitations FROM orbs   3 to   4 INTO orbs   5 to   6
 

 CI excitations=    5:        =  5
 The lowest    5 spin-adapted configurations of multiplicity=  1
     sym   eV   cm**-1 -dets- dipole oscilator X FRAG ....Excitations named from first reference determinate
                       tot  #  Debye  strength
 
   1      0.000      0.  1  1  2.4745 0.000000 0  0 (     )->       )
   2     11.271  90905.  1  1  0.4105 0.033254 1  1 (   4 )->   5   )
   3     11.996  96756.  1  1  0.7998 0.000227 1  1 (   4 )->   6   )
   4     14.067 113455.  1  1  0.7345 0.034935 1  1 (   3 )->   5   )
   5     14.838 119678.  1  1  0.3740 0.210268 1  1 (   3 )->   6   )

 Depression of ground-state after CI=          0. cm**-1 Energy=  -466.6202247 eV
 Dipole moment=  1.516757  1.859529 -0.603867 tot=  2.474481 Debyes


  CI trans.  energy frequency wavelength oscillator ---------polarization---------    dipole   ------components----- 
 st.  symm.    eV      cm-1       nm      strength       x          y         z       moment     x       y       z 

   2     11.2672938    90877.    110.04  0.032721   0.161983   0.182783   0.969717  0.745600   0.653  -0.358  -0.042
   3     11.9996802    96784.    103.32  0.000784   0.161983   0.182783   0.969717  0.998290  -0.112   0.978  -0.166
   4     14.0650491   113443.     88.15  0.036610  -0.353350  -0.906790   0.229946  0.867568   0.081  -0.851   0.147
   5     14.8396496   119690.     83.55  0.208519   0.794992  -0.606337  -0.018508  0.595693  -0.492   0.336   0.019
 
 Polarizability (au  ) xx=    1.40 xy=   -0.86 yy=    1.13 xz=    0.03 yz=    0.04 zz=    0.57
 Polarizability (A**3) xx=    0.21 xy=   -0.13 yy=    0.17 xz=    0.00 yz=    0.01 zz=    0.08
 ***********************************
 ***********************************
 CI Matrix
  1.0000000000  0.0000000000  0.0000000000  0.0000000000  0.0000000000 
  0.0000000000 -0.9976244338  0.0688875107 -0.0000000000  0.0000000000 
  0.0000000000 -0.0688875107 -0.9976244338 -0.0000000000 -0.0000000000 
  0.0000000000  0.0000000000  0.0000000000 -0.9990163436  0.0443434922 
  0.0000000000 -0.0000000000 -0.0000000000  0.0443434922  0.9990163436 
 ***********************************
 ***********************************
 
 
 Major CI contributions to CI states
 
State    1  0.0000     CI coeff  CI percent
    Config       1   1.00000000  1.00000000
 Total coeff printed             1.00000000
  
State    2 11.2673     CI coeff  CI percent
    Config       2  -0.99762443  0.99525451
    Config       3   0.06888751  0.00474549
 Total coeff printed             1.00000000
  
State    3 11.9997     CI coeff  CI percent
    Config       2  -0.06888751  0.00474549
    Config       3  -0.99762443  0.99525451
 Total coeff printed             1.00000000
  
State    4 14.0650     CI coeff  CI percent
    Config       4  -0.99901634  0.99803365
    Config       5   0.04434349  0.00196635
 Total coeff printed             1.00000000
  
State    5 14.8396     CI coeff  CI percent
    Config       4   0.04434349  0.00196635
    Config       5   0.99901634  0.99803365
 Total coeff printed             1.00000000
  

 -------------------------------------------------------------------------------
 INDO C.I.=(4,2) AllVEC CHARGE=0 RELSCF=0.000001




     1SCF WAS SPECIFIED, SO BFGS WAS NOT USED                 
     SCF FIELD WAS ACHIEVED                                   


                              INDO CALCULATION
                                                       MOPAC2016 (Version: 20.173L)
                                                       Thu Jun  1 14:00:57 2023




          FINAL HEAT OF FORMATION =      -8368.50585 KCAL/MOL =  -35013.82847 KJ/MOL


          TOTAL ENERGY            =       -369.99450 EV
          ELECTRONIC ENERGY       =       -466.62022 EV  POINT GROUP:     C2v 
          CORE-CORE REPULSION     =         96.62573 EV
          COSMO AREA              =         42.50 SQUARE ANGSTROMS
          COSMO VOLUME            =         25.23 CUBIC ANGSTROMS

          IONIZATION POTENTIAL    =         12.833482 EV
          HOMO LUMO ENERGIES (EV) =        -12.833  6.433
          NO. OF FILLED LEVELS    =          4
          MOLECULAR WEIGHT        =         18.0152

          MOLECULAR DIMENSIONS (Angstroms)

            Atom       Atom       Distance
            H     3    H     2     1.48855
            O     1    H     3     0.59620
            H     2    O     1     0.00000


          SCF CALCULATIONS        =          1
 
          WALL-CLOCK TIME         =          0.012 SECONDS
          COMPUTATION TIME        =          0.010 SECONDS




   ATOM   CHEMICAL          X               Y               Z
  NUMBER   SYMBOL      (ANGSTROMS)     (ANGSTROMS)     (ANGSTROMS)
 
     1       O         -1.05213393  *   0.46509177  *   0.01627634  *
     2       H         -0.11847010  *   0.44130832  *  -0.13520167  *
     3       H         -1.26362769  *   1.39223085  *  -0.12315300  *

                             CARTESIAN COORDINATES

   1    O       -1.052133933     0.465091767     0.016276344
   2    H       -0.118470098     0.441308321    -0.135201666
   3    H       -1.263627693     1.392230846    -0.123153002


           Empirical Formula: H2 O  =     3 atoms



      MOLECULAR POINT GROUP   :   C2v 


                EIGENVECTORS  


   Root No.       1         2         3         4         5         6

                 1 a1      1 b2      2 a1      1 b1      3 a1      2 b2  

               -41.089   -19.625   -14.819   -12.833     6.433     7.956
  
  S   O    1    0.8282   -0.0050   -0.4043    0.0000   -0.3868   -0.0310
  Px  O    1    0.1124    0.6065    0.5194    0.1620   -0.2701   -0.5005
  Py  O    1    0.1325   -0.4964    0.6364    0.1828   -0.4045    0.3661
  Pz  O    1   -0.0437   -0.0078   -0.2067    0.9697    0.1214    0.0146
  S   H    2    0.3791    0.4367    0.2421   -0.0000    0.5056    0.5927
  S   H    3    0.3718   -0.4415    0.2457   -0.0000    0.5861   -0.5128


              NET ATOMIC CHARGES AND DIPOLE CONTRIBUTIONS

  ATOM NO.   TYPE          CHARGE      No. of ELECS.   s-Pop       p-Pop       
    1          O          -0.426812        6.4268     1.69891     4.72790
    2          H           0.213910        0.7861     0.78609
    3          H           0.212902        0.7871     0.78710
 DIPOLE           X         Y         Z       TOTAL
 POINT-CHG.     0.743     0.924    -0.298     1.222
 HYBRID         0.774     0.936    -0.306     1.252
 SUM            1.517     1.860    -0.604     2.475


          ATOMIC ORBITAL ELECTRON POPULATIONS

     Atom    s        px        py        pz   
    1  O   1.69891   1.35306   1.40473   1.97012
    2  H   0.78609
    3  H   0.78710

 **********************
 *                    *
 * JOB ENDED NORMALLY *
 *                    *
 **********************



 TOTAL JOB TIME:             0.04 SECONDS

 == MOPAC DONE ==


          MOPAC Job: "./h2oTraj/h2o_30.mop" ended normally on Jun  1, 2023, at 14:00.

rm: cannot remove ‘./h2oTraj/h2o_30.cim’: No such file or directory
rm: cannot remove ‘./h2oTraj/h2o_30.end’: No such file or directory
rm: cannot remove ‘./h2oTraj/h2o_30.log’: No such file or directory
rm: cannot remove ‘./h2oTraj/h2o_30.temp’: No such file or directory
rm: cannot remove ‘./h2oTraj/h2o_30.ple’: No such file or directory
rm: cannot remove ‘./h2oTraj/h2o_30.sts’: No such file or directory
