 *******************************************************************************
 ** Site#:    0         For non-commercial use only    Version 20.173L 64BITS **
 *******************************************************************************
 ** Cite this program as: MOPAC2016, Version: 20.173L, James J. P. Stewart,   **
 ** Stewart Computational Chemistry, web-site: HTTP://OpenMOPAC.net.          **
 *******************************************************************************
 **                                                                           **
 **                                MOPAC2016                                  **
 **                                                                           **
 *******************************************************************************

                              INDO CALCULATION RESULTS

 *******************************************************************************
 *  CALCULATION DONE:                                Thu Jun  1 14:00:59 2023  *
 *  INDO       - The INDO Hamiltonian to be used
 *
 *
 *
 *                 CHARGE ON SYSTEM = 0
 *
 *
 *
 *  C.I.=(N,M) - 2 DOUBLY FILLED LEVELS USED IN A C.I. INVOLVING 4 M.O.'S
 *  T=         - A TIME OF 172800.0 SECONDS REQUESTED
 *  DUMP=N     - RESTART FILE WRITTEN EVERY 7200.0 SECONDS REQUESTED
 *  RELSCF     - DEFAULT SCF CRITERION MULTIPLIED BY 0.0000
 *              (DEFAULT SCF CRITERION = 0.00010)
 *  ALLVEC     - PRINT ALL EIGENVECTORS
 **********
 *  WARNING: Specified print options may not behave as expected with INDO
 **********
 *******************************************************************************
INDO C.I.=(4,2) AllVEC CHARGE=0 RELSCF=0.000001


   ATOM   CHEMICAL          X               Y               Z
  NUMBER   SYMBOL      (ANGSTROMS)     (ANGSTROMS)     (ANGSTROMS)
 
     1       O         -1.05063406  *   0.46160472  *   0.01994974  *
     2       H         -0.08395056  *   0.46222348  *  -0.15719090  *
     3       H         -1.32195471  *   1.42666566  *  -0.15947171  *
 


          CARTESIAN COORDINATES 

    NO.       ATOM           X           Y           Z

     1         O         -1.0506      0.4616      0.0199
     2         H         -0.0840      0.4622     -0.1572
     3         H         -1.3220      1.4267     -0.1595

           Empirical Formula: H2 O  =     3 atoms



      MOLECULAR POINT GROUP   :   C2v 


      RHF CALCULATION, NO. OF DOUBLY OCCUPIED LEVELS = 4

 WARNING: INDO only performs single-point calculations
  SCF CRITERION =    0.1000E-09

 Summary of symmetry occupancy in each shell:

 SHELL     
    1    4
    v    2
 TOTAL   6




    ROOT NO.    1           2           3           4           5           6

           -40.00414   -19.32361   -14.78783   -12.81051     5.67862     7.35384
  
  
  S  O   1   0.83897    -0.01376    -0.39680    -0.00000    -0.36643    -0.06498
 PX  O   1   0.10652     0.62458     0.48538     0.17538    -0.20998    -0.53676
 PY  O   1   0.12727    -0.46805     0.64548     0.22739    -0.44550     0.31291
 PZ  O   1  -0.04972    -0.00325    -0.24210     0.95788     0.14420     0.02400
  
  S  H   2   0.37363     0.43712     0.25110     0.00000     0.45507     0.63182
  
  S  H   3   0.35570    -0.44673     0.26201     0.00000     0.62871    -0.45824


 Reference determinate nber   1 is ALPHA 1 -   4
 SINGLE excitations FROM orbs   3 to   4 INTO orbs   5 to   6
 

 CI excitations=    5:        =  5
 The lowest    5 spin-adapted configurations of multiplicity=  1
     sym   eV   cm**-1 -dets- dipole oscilator X FRAG ....Excitations named from first reference determinate
                       tot  #  Debye  strength
 
   1      0.000      0.  1  1  2.4835 0.000000 0  0 (     )->       )
   2     10.517  84824.  1  1  0.8716 0.027852 1  1 (   4 )->   5   )
   3     11.457  92405.  1  1  1.0396 0.000954 1  1 (   4 )->   6   )
   4     13.483 108745.  1  1  1.0348 0.051931 1  1 (   3 )->   5   )
   5     14.344 115690.  1  1  0.8304 0.226846 1  1 (   3 )->   6   )

 Depression of ground-state after CI=          0. cm**-1 Energy=  -462.0298390 eV
 Dipole moment=  1.433842  1.898253 -0.713159 tot=  2.483518 Debyes


  CI trans.  energy frequency wavelength oscillator ---------polarization---------    dipole   ------components----- 
 st.  symm.    eV      cm-1       nm      strength       x          y         z       moment     x       y       z 

   2     10.5061177    84738.    118.01  0.026493   0.175381   0.227393   0.957880  1.381022   1.157  -0.753  -0.033
   3     11.4673600    92491.    108.12  0.002408   0.175377   0.227395   0.957880  1.460131  -0.676   1.281  -0.180
   4     13.4759833   108691.     92.00  0.059394  -0.077789  -0.966717   0.243734  1.396351   0.670  -1.214   0.165
   5     14.3504165   115744.     86.40  0.218977   0.842791  -0.537579  -0.026692  1.256733  -1.025   0.727   0.015
 
 Polarizability (au  ) xx=    1.70 xy=   -0.99 yy=    1.39 xz=    0.03 yz=   -0.01 zz=    0.57
 Polarizability (A**3) xx=    0.25 xy=   -0.15 yy=    0.21 xz=    0.00 yz=   -0.00 zz=    0.08
 ***********************************
 ***********************************
 CI Matrix
  1.0000000000  0.0000000000  0.0000000000  0.0000000000  0.0000000000 
  0.0000000000 -0.9944502566  0.1052078288  0.0000002219 -0.0000000131 
  0.0000000000 -0.1052078288 -0.9944502566  0.0000001323  0.0000002331 
  0.0000000000 -0.0000002327 -0.0000000875 -0.9961827467  0.0872922404 
  0.0000000000  0.0000000320  0.0000002418  0.0872922404  0.9961827467 
 ***********************************
 ***********************************
 
 
 Major CI contributions to CI states
 
State    1  0.0000     CI coeff  CI percent
    Config       1   1.00000000  1.00000000
 Total coeff printed             1.00000000
  
State    2 10.5061     CI coeff  CI percent
    Config       2  -0.99445026  0.98893131
    Config       3   0.10520783  0.01106869
 Total coeff printed             1.00000000
  
State    3 11.4674     CI coeff  CI percent
    Config       2  -0.10520783  0.01106869
    Config       3  -0.99445026  0.98893131
 Total coeff printed             1.00000000
  
State    4 13.4760     CI coeff  CI percent
    Config       4  -0.99618275  0.99238006
    Config       5   0.08729224  0.00761994
 Total coeff printed             1.00000000
  
State    5 14.3504     CI coeff  CI percent
    Config       4   0.08729224  0.00761994
    Config       5   0.99618275  0.99238006
 Total coeff printed             1.00000000
  

 -------------------------------------------------------------------------------
 INDO C.I.=(4,2) AllVEC CHARGE=0 RELSCF=0.000001




     1SCF WAS SPECIFIED, SO BFGS WAS NOT USED                 
     SCF FIELD WAS ACHIEVED                                   


                              INDO CALCULATION
                                                       MOPAC2016 (Version: 20.173L)
                                                       Thu Jun  1 14:01:00 2023




          FINAL HEAT OF FORMATION =      -8308.37769 KCAL/MOL =  -34762.25225 KJ/MOL


          TOTAL ENERGY            =       -367.38709 EV
          ELECTRONIC ENERGY       =       -462.02984 EV  POINT GROUP:     C2v 
          CORE-CORE REPULSION     =         94.64275 EV
          COSMO AREA              =         43.18 SQUARE ANGSTROMS
          COSMO VOLUME            =         25.71 CUBIC ANGSTROMS

          IONIZATION POTENTIAL    =         12.810506 EV
          HOMO LUMO ENERGIES (EV) =        -12.811  5.679
          NO. OF FILLED LEVELS    =          4
          MOLECULAR WEIGHT        =         18.0152

          MOLECULAR DIMENSIONS (Angstroms)

            Atom       Atom       Distance
            H     3    H     2     1.56933
            H     2    O     1     0.62071
            H     2    H     3     0.00000


          SCF CALCULATIONS        =          1
 
          WALL-CLOCK TIME         =          0.277 SECONDS
          COMPUTATION TIME        =          0.011 SECONDS




   ATOM   CHEMICAL          X               Y               Z
  NUMBER   SYMBOL      (ANGSTROMS)     (ANGSTROMS)     (ANGSTROMS)
 
     1       O         -1.05063406  *   0.46160472  *   0.01994974  *
     2       H         -0.08395056  *   0.46222348  *  -0.15719090  *
     3       H         -1.32195471  *   1.42666566  *  -0.15947171  *

                             CARTESIAN COORDINATES

   1    O       -1.050634062     0.461604719     0.019949744
   2    H       -0.083950562     0.462223476    -0.157190898
   3    H       -1.321954710     1.426665659    -0.159471708


           Empirical Formula: H2 O  =     3 atoms



      MOLECULAR POINT GROUP   :   C2v 


                EIGENVECTORS  


   Root No.       1         2         3         4         5         6

                 1 a1      1 b2      2 a1      1 b1      3 a1      2 b2  

               -40.004   -19.324   -14.788   -12.811     5.679     7.354
  
  S   O    1    0.8390   -0.0138   -0.3968   -0.0000   -0.3664   -0.0650
  Px  O    1    0.1065    0.6246    0.4854    0.1754   -0.2100   -0.5368
  Py  O    1    0.1273   -0.4680    0.6455    0.2274   -0.4455    0.3129
  Pz  O    1   -0.0497   -0.0032   -0.2421    0.9579    0.1442    0.0240
  S   H    2    0.3736    0.4371    0.2511    0.0000    0.4551    0.6318
  S   H    3    0.3557   -0.4467    0.2620    0.0000    0.6287   -0.4582


              NET ATOMIC CHARGES AND DIPOLE CONTRIBUTIONS

  ATOM NO.   TYPE          CHARGE      No. of ELECS.   s-Pop       p-Pop       
    1          O          -0.423088        6.4231     1.72301     4.70008
    2          H           0.212563        0.7874     0.78744
    3          H           0.210525        0.7895     0.78948
 DIPOLE           X         Y         Z       TOTAL
 POINT-CHG.     0.713     0.976    -0.362     1.262
 HYBRID         0.721     0.922    -0.351     1.222
 SUM            1.434     1.898    -0.713     2.484


          ATOMIC ORBITAL ELECTRON POPULATIONS

     Atom    s        px        py        pz   
    1  O   1.72301   1.33559   1.40723   1.95726
    2  H   0.78744
    3  H   0.78948

 **********************
 *                    *
 * JOB ENDED NORMALLY *
 *                    *
 **********************



 TOTAL JOB TIME:             0.56 SECONDS

 == MOPAC DONE ==


          MOPAC Job: "./h2oTraj/h2o_34.mop" ended normally on Jun  1, 2023, at 14:01.

rm: cannot remove ‘./h2oTraj/h2o_34.cim’: No such file or directory
rm: cannot remove ‘./h2oTraj/h2o_34.end’: No such file or directory
rm: cannot remove ‘./h2oTraj/h2o_34.log’: No such file or directory
rm: cannot remove ‘./h2oTraj/h2o_34.temp’: No such file or directory
rm: cannot remove ‘./h2oTraj/h2o_34.ple’: No such file or directory
rm: cannot remove ‘./h2oTraj/h2o_34.sts’: No such file or directory
