 *******************************************************************************
 ** Site#:    0         For non-commercial use only    Version 20.173L 64BITS **
 *******************************************************************************
 ** Cite this program as: MOPAC2016, Version: 20.173L, James J. P. Stewart,   **
 ** Stewart Computational Chemistry, web-site: HTTP://OpenMOPAC.net.          **
 *******************************************************************************
 **                                                                           **
 **                                MOPAC2016                                  **
 **                                                                           **
 *******************************************************************************

                              INDO CALCULATION RESULTS

 *******************************************************************************
 *  CALCULATION DONE:                                Thu Jun  1 14:01:01 2023  *
 *  INDO       - The INDO Hamiltonian to be used
 *
 *
 *
 *                 CHARGE ON SYSTEM = 0
 *
 *
 *
 *  C.I.=(N,M) - 2 DOUBLY FILLED LEVELS USED IN A C.I. INVOLVING 4 M.O.'S
 *  T=         - A TIME OF 172800.0 SECONDS REQUESTED
 *  DUMP=N     - RESTART FILE WRITTEN EVERY 7200.0 SECONDS REQUESTED
 *  RELSCF     - DEFAULT SCF CRITERION MULTIPLIED BY 0.0000
 *              (DEFAULT SCF CRITERION = 0.00010)
 *  ALLVEC     - PRINT ALL EIGENVECTORS
 **********
 *  WARNING: Specified print options may not behave as expected with INDO
 **********
 *******************************************************************************
INDO C.I.=(4,2) AllVEC CHARGE=0 RELSCF=0.000001


   ATOM   CHEMICAL          X               Y               Z
  NUMBER   SYMBOL      (ANGSTROMS)     (ANGSTROMS)     (ANGSTROMS)
 
     1       O         -1.05041277  *   0.47013046  *   0.02856458  *
     2       H         -0.08977963  *   0.39380243  *  -0.17590650  *
     3       H         -1.31963818  *   1.35975746  *  -0.27749954  *
 


          CARTESIAN COORDINATES 

    NO.       ATOM           X           Y           Z

     1         O         -1.0504      0.4701      0.0286
     2         H         -0.0898      0.3938     -0.1759
     3         H         -1.3196      1.3598     -0.2775

           Empirical Formula: H2 O  =     3 atoms



      MOLECULAR POINT GROUP   :   C2v 


      RHF CALCULATION, NO. OF DOUBLY OCCUPIED LEVELS = 4

 WARNING: INDO only performs single-point calculations
  SCF CRITERION =    0.1000E-09

 Summary of symmetry occupancy in each shell:

 SHELL     
    1    4
    v    2
 TOTAL   6




    ROOT NO.    1           2           3           4           5           6

           -40.33240   -19.65679   -14.65111   -12.80070     5.90026     7.69723
  
  
  S  O   1   0.83707     0.00243    -0.39082     0.00000    -0.38267    -0.01145
 PX  O   1   0.09810     0.60932     0.49480     0.22139    -0.30137     0.48418
 PY  O   1   0.11890    -0.48146     0.58752     0.37649    -0.33112    -0.39685
 PZ  O   1  -0.07390     0.05154    -0.36766     0.89958     0.21275     0.04693
  
  S  H   2   0.36583     0.44497     0.24795    -0.00000     0.56583    -0.53528
  
  S  H   3   0.36914    -0.44301     0.24617    -0.00000     0.53635     0.56499


 Reference determinate nber   1 is ALPHA 1 -   4
 SINGLE excitations FROM orbs   3 to   4 INTO orbs   5 to   6
 

 CI excitations=    5:        =  5
 The lowest    5 spin-adapted configurations of multiplicity=  1
     sym   eV   cm**-1 -dets- dipole oscilator X FRAG ....Excitations named from first reference determinate
                       tot  #  Debye  strength
 
   1      0.000      0.  1  1  2.4375 0.000000 0  0 (     )->       )
   2     10.770  86864.  1  1  0.1803 0.031106 1  1 (   4 )->   5   )
   3     11.730  94607.  1  1  0.7295 0.000030 1  1 (   4 )->   6   )
   4     13.486 108770.  1  1  0.6446 0.032363 1  1 (   3 )->   5   )
   5     14.450 116546.  1  1  0.1440 0.220519 1  1 (   3 )->   6   )

 Depression of ground-state after CI=          0. cm**-1 Energy=  -463.7760774 eV
 Dipole moment=  1.416249  1.681756 -1.052383 tot=  2.437534 Debyes


  CI trans.  energy frequency wavelength oscillator ---------polarization---------    dipole   ------components----- 
 st.  symm.    eV      cm-1       nm      strength       x          y         z       moment     x       y       z 

   2     10.7693807    86861.    115.13  0.031056   0.221390   0.376487   0.899580  0.274624  -0.143   0.227  -0.060
   3     11.7301766    94610.    105.70  0.000083   0.221383   0.376497   0.899577  0.755924   0.607   0.343  -0.293
   4     13.4856000   108769.     91.94  0.032561  -0.666664  -0.614816   0.421378  0.664315  -0.536  -0.298   0.256
   5     14.4500575   116548.     85.80  0.220310  -0.776932   0.625612  -0.070622  0.216070   0.163  -0.141   0.019
 
 Polarizability (au  ) xx=    1.62 xy=   -0.93 yy=    1.15 xz=    0.14 yz=   -0.00 zz=    0.56
 Polarizability (A**3) xx=    0.24 xy=   -0.14 yy=    0.17 xz=    0.02 yz=   -0.00 zz=    0.08
 ***********************************
 ***********************************
 CI Matrix
  1.0000000000  0.0000000000  0.0000000000  0.0000000000  0.0000000000 
  0.0000000000 -0.9998052605  0.0197342615 -0.0000001147 -0.0000000106 
  0.0000000000 -0.0197342615 -0.9998052605 -0.0000001164 -0.0000001145 
  0.0000000000  0.0000001168  0.0000001125 -0.9999084075  0.0135342790 
  0.0000000000 -0.0000000145 -0.0000001158  0.0135342790  0.9999084075 
 ***********************************
 ***********************************
 
 
 Major CI contributions to CI states
 
State    1  0.0000     CI coeff  CI percent
    Config       1   1.00000000  1.00000000
 Total coeff printed             1.00000000
  
State    2 10.7694     CI coeff  CI percent
    Config       2  -0.99980526  0.99961056
 Total coeff printed             0.99961056
  
State    3 11.7302     CI coeff  CI percent
    Config       3  -0.99980526  0.99961056
 Total coeff printed             0.99961056
  
State    4 13.4856     CI coeff  CI percent
    Config       4  -0.99990841  0.99981682
 Total coeff printed             0.99981682
  
State    5 14.4501     CI coeff  CI percent
    Config       5   0.99990841  0.99981682
 Total coeff printed             0.99981682
  

 -------------------------------------------------------------------------------
 INDO C.I.=(4,2) AllVEC CHARGE=0 RELSCF=0.000001




     1SCF WAS SPECIFIED, SO BFGS WAS NOT USED                 
     SCF FIELD WAS ACHIEVED                                   


                              INDO CALCULATION
                                                       MOPAC2016 (Version: 20.173L)
                                                       Thu Jun  1 14:01:01 2023




          FINAL HEAT OF FORMATION =      -8332.11554 KCAL/MOL =  -34861.57140 KJ/MOL


          TOTAL ENERGY            =       -368.41646 EV
          ELECTRONIC ENERGY       =       -463.77608 EV  POINT GROUP:     C2v 
          CORE-CORE REPULSION     =         95.35961 EV
          COSMO AREA              =         42.75 SQUARE ANGSTROMS
          COSMO VOLUME            =         25.39 CUBIC ANGSTROMS

          IONIZATION POTENTIAL    =         12.800704 EV
          HOMO LUMO ENERGIES (EV) =        -12.801  5.900
          NO. OF FILLED LEVELS    =          4
          MOLECULAR WEIGHT        =         18.0152

          MOLECULAR DIMENSIONS (Angstroms)

            Atom       Atom       Distance
            H     3    H     2     1.56714
            H     2    O     1     0.59162
            O     1    H     3     0.00000


          SCF CALCULATIONS        =          1
 
          WALL-CLOCK TIME         =          0.051 SECONDS
          COMPUTATION TIME        =          0.010 SECONDS




   ATOM   CHEMICAL          X               Y               Z
  NUMBER   SYMBOL      (ANGSTROMS)     (ANGSTROMS)     (ANGSTROMS)
 
     1       O         -1.05041277  *   0.47013046  *   0.02856458  *
     2       H         -0.08977963  *   0.39380243  *  -0.17590650  *
     3       H         -1.31963818  *   1.35975746  *  -0.27749954  *

                             CARTESIAN COORDINATES

   1    O       -1.050412772     0.470130463     0.028564581
   2    H       -0.089779634     0.393802425    -0.175906504
   3    H       -1.319638177     1.359757455    -0.277499536


           Empirical Formula: H2 O  =     3 atoms



      MOLECULAR POINT GROUP   :   C2v 


                EIGENVECTORS  


   Root No.       1         2         3         4         5         6

                 1 a1      1 b2      2 a1      1 b1      3 a1      2 b2  

               -40.332   -19.657   -14.651   -12.801     5.900     7.697
  
  S   O    1    0.8371    0.0024   -0.3908    0.0000   -0.3827   -0.0114
  Px  O    1    0.0981    0.6093    0.4948    0.2214   -0.3014    0.4842
  Py  O    1    0.1189   -0.4815    0.5875    0.3765   -0.3311   -0.3968
  Pz  O    1   -0.0739    0.0515   -0.3677    0.8996    0.2127    0.0469
  S   H    2    0.3658    0.4450    0.2479   -0.0000    0.5658   -0.5353
  S   H    3    0.3691   -0.4430    0.2462   -0.0000    0.5363    0.5650


              NET ATOMIC CHARGES AND DIPOLE CONTRIBUTIONS

  ATOM NO.   TYPE          CHARGE      No. of ELECS.   s-Pop       p-Pop       
    1          O          -0.427152        6.4272     1.70686     4.72029
    2          H           0.213388        0.7866     0.78661
    3          H           0.213764        0.7862     0.78624
 DIPOLE           X         Y         Z       TOTAL
 POINT-CHG.     0.708     0.835    -0.524     1.214
 HYBRID         0.708     0.847    -0.529     1.224
 SUM            1.416     1.682    -1.052     2.438


          ATOMIC ORBITAL ELECTRON POPULATIONS

     Atom    s        px        py        pz   
    1  O   1.70686   1.34948   1.46574   1.90507
    2  H   0.78661
    3  H   0.78624

 **********************
 *                    *
 * JOB ENDED NORMALLY *
 *                    *
 **********************



 TOTAL JOB TIME:             0.10 SECONDS

 == MOPAC DONE ==


          MOPAC Job: "./h2oTraj/h2o_60.mop" ended normally on Jun  1, 2023, at 14:01.

rm: cannot remove ‘./h2oTraj/h2o_60.cim’: No such file or directory
rm: cannot remove ‘./h2oTraj/h2o_60.end’: No such file or directory
rm: cannot remove ‘./h2oTraj/h2o_60.log’: No such file or directory
rm: cannot remove ‘./h2oTraj/h2o_60.temp’: No such file or directory
rm: cannot remove ‘./h2oTraj/h2o_60.ple’: No such file or directory
rm: cannot remove ‘./h2oTraj/h2o_60.sts’: No such file or directory
