 *******************************************************************************
 ** Site#:    0         For non-commercial use only    Version 20.173L 64BITS **
 *******************************************************************************
 ** Cite this program as: MOPAC2016, Version: 20.173L, James J. P. Stewart,   **
 ** Stewart Computational Chemistry, web-site: HTTP://OpenMOPAC.net.          **
 *******************************************************************************
 **                                                                           **
 **                                MOPAC2016                                  **
 **                                                                           **
 *******************************************************************************

                              INDO CALCULATION RESULTS

 *******************************************************************************
 *  CALCULATION DONE:                                Thu Jun  1 14:00:56 2023  *
 *  INDO       - The INDO Hamiltonian to be used
 *
 *
 *
 *                 CHARGE ON SYSTEM = 0
 *
 *
 *
 *  C.I.=(N,M) - 2 DOUBLY FILLED LEVELS USED IN A C.I. INVOLVING 4 M.O.'S
 *  T=         - A TIME OF 172800.0 SECONDS REQUESTED
 *  DUMP=N     - RESTART FILE WRITTEN EVERY 7200.0 SECONDS REQUESTED
 *  RELSCF     - DEFAULT SCF CRITERION MULTIPLIED BY 0.0000
 *              (DEFAULT SCF CRITERION = 0.00010)
 *  ALLVEC     - PRINT ALL EIGENVECTORS
 **********
 *  WARNING: Specified print options may not behave as expected with INDO
 **********
 *******************************************************************************
INDO C.I.=(4,2) AllVEC CHARGE=0 RELSCF=0.000001


   ATOM   CHEMICAL          X               Y               Z
  NUMBER   SYMBOL      (ANGSTROMS)     (ANGSTROMS)     (ANGSTROMS)
 
     1       O         -1.05211582  *   0.46864830  *   0.01169624  *
     2       H         -0.07684378  *   0.39021924  *  -0.09902910  *
     3       H         -1.30554147  *   1.38686697  *  -0.08662555  *
 


          CARTESIAN COORDINATES 

    NO.       ATOM           X           Y           Z

     1         O         -1.0521      0.4686      0.0117
     2         H         -0.0768      0.3902     -0.0990
     3         H         -1.3055      1.3869     -0.0866

           Empirical Formula: H2 O  =     3 atoms



      MOLECULAR POINT GROUP   :   C2v 


      RHF CALCULATION, NO. OF DOUBLY OCCUPIED LEVELS = 4

 WARNING: INDO only performs single-point calculations
  SCF CRITERION =    0.1000E-09

 Summary of symmetry occupancy in each shell:

 SHELL     
    1    4
    v    2
 TOTAL   6




    ROOT NO.    1           2           3           4           5           6

           -40.47542   -19.95473   -14.48075   -12.78054     5.92155     8.01402
  
  
  S  O   1   0.83728     0.00988    -0.38124     0.00000    -0.38951    -0.04239
 PX  O   1   0.09932     0.59619     0.53856     0.12275    -0.34818     0.45646
 PY  O   1   0.13039    -0.49555     0.65197     0.13910    -0.32315    -0.43427
 PZ  O   1  -0.03087    -0.00433    -0.15956     0.98264     0.08924     0.00445
  
  S  H   2   0.36123     0.45087     0.24219    -0.00000     0.60443    -0.49219
  
  S  H   3   0.37504    -0.44227     0.23542    -0.00000     0.49933     0.59916


 Reference determinate nber   1 is ALPHA 1 -   4
 SINGLE excitations FROM orbs   3 to   4 INTO orbs   5 to   6
 

 CI excitations=    5:        =  5
 The lowest    5 spin-adapted configurations of multiplicity=  1
     sym   eV   cm**-1 -dets- dipole oscilator X FRAG ....Excitations named from first reference determinate
                       tot  #  Debye  strength
 
   1      0.000      0.  1  1  2.3845 0.000000 0  0 (     )->       )
   2     10.807  87165.  1  1  0.5609 0.032340 1  1 (   4 )->   5   )
   3     11.995  96747.  1  1  0.9068 0.000425 1  1 (   4 )->   6   )
   4     13.289 107187.  1  1  0.8273 0.024850 1  1 (   3 )->   5   )
   5     14.517 117086.  1  1  0.5188 0.207919 1  1 (   3 )->   6   )

 Depression of ground-state after CI=          0. cm**-1 Energy=  -464.7408880 eV
 Dipole moment=  1.494093  1.805010 -0.442146 tot=  2.384506 Debyes


  CI trans.  energy frequency wavelength oscillator ---------polarization---------    dipole   ------components----- 
 st.  symm.    eV      cm-1       nm      strength       x          y         z       moment     x       y       z 

   2     10.8025341    87129.    114.77  0.031778   0.122748   0.139099   0.982642  0.877733  -0.593   0.647  -0.018
   3     11.9995814    96783.    103.32  0.001034   0.122745   0.139103   0.982641  1.110811   1.101   0.044  -0.144
   4     13.2876449   107172.     93.31  0.026740  -0.889527  -0.423641   0.171085  0.966414  -0.959  -0.010   0.121
   5     14.5185323   117100.     85.40  0.205875  -0.753838   0.657059   0.001156  0.720452   0.557  -0.457  -0.005
 
 Polarizability (au  ) xx=    1.51 xy=   -0.94 yy=    1.01 xz=    0.02 yz=    0.06 zz=    0.61
 Polarizability (A**3) xx=    0.22 xy=   -0.14 yy=    0.15 xz=    0.00 yz=    0.01 zz=    0.09
 ***********************************
 ***********************************
 CI Matrix
  1.0000000000  0.0000000000  0.0000000000  0.0000000000  0.0000000000 
  0.0000000000 -0.9981326390  0.0610838356 -0.0000001777 -0.0000000011 
  0.0000000000 -0.0610838356 -0.9981326390 -0.0000001920 -0.0000001998 
  0.0000000000  0.0000001885  0.0000001730 -0.9992674548  0.0382694881 
  0.0000000000 -0.0000000206 -0.0000002062  0.0382694881  0.9992674548 
 ***********************************
 ***********************************
 
 
 Major CI contributions to CI states
 
State    1  0.0000     CI coeff  CI percent
    Config       1   1.00000000  1.00000000
 Total coeff printed             1.00000000
  
State    2 10.8025     CI coeff  CI percent
    Config       2  -0.99813264  0.99626877
    Config       3   0.06108384  0.00373123
 Total coeff printed             1.00000000
  
State    3 11.9996     CI coeff  CI percent
    Config       2  -0.06108384  0.00373123
    Config       3  -0.99813264  0.99626877
 Total coeff printed             1.00000000
  
State    4 13.2876     CI coeff  CI percent
    Config       4  -0.99926745  0.99853545
 Total coeff printed             0.99853545
  
State    5 14.5185     CI coeff  CI percent
    Config       5   0.99926745  0.99853545
 Total coeff printed             0.99853545
  

 -------------------------------------------------------------------------------
 INDO C.I.=(4,2) AllVEC CHARGE=0 RELSCF=0.000001




     1SCF WAS SPECIFIED, SO BFGS WAS NOT USED                 
     SCF FIELD WAS ACHIEVED                                   


                              INDO CALCULATION
                                                       MOPAC2016 (Version: 20.173L)
                                                       Thu Jun  1 14:00:56 2023




          FINAL HEAT OF FORMATION =      -8345.43577 KCAL/MOL =  -34917.30327 KJ/MOL


          TOTAL ENERGY            =       -368.99408 EV
          ELECTRONIC ENERGY       =       -464.74089 EV  POINT GROUP:     C2v 
          CORE-CORE REPULSION     =         95.74680 EV
          COSMO AREA              =         42.73 SQUARE ANGSTROMS
          COSMO VOLUME            =         25.36 CUBIC ANGSTROMS

          IONIZATION POTENTIAL    =         12.780536 EV
          HOMO LUMO ENERGIES (EV) =        -12.781  5.922
          NO. OF FILLED LEVELS    =          4
          MOLECULAR WEIGHT        =         18.0152

          MOLECULAR DIMENSIONS (Angstroms)

            Atom       Atom       Distance
            H     3    H     2     1.58214
            H     2    O     1     0.56323
            O     1    H     3     0.00000


          SCF CALCULATIONS        =          1
 
          WALL-CLOCK TIME         =          0.059 SECONDS
          COMPUTATION TIME        =          0.010 SECONDS




   ATOM   CHEMICAL          X               Y               Z
  NUMBER   SYMBOL      (ANGSTROMS)     (ANGSTROMS)     (ANGSTROMS)
 
     1       O         -1.05211582  *   0.46864830  *   0.01169624  *
     2       H         -0.07684378  *   0.39021924  *  -0.09902910  *
     3       H         -1.30554147  *   1.38686697  *  -0.08662555  *

                             CARTESIAN COORDINATES

   1    O       -1.052115823     0.468648304     0.011696243
   2    H       -0.076843783     0.390219238    -0.099029103
   3    H       -1.305541469     1.386866971    -0.086625550


           Empirical Formula: H2 O  =     3 atoms



      MOLECULAR POINT GROUP   :   C2v 


                EIGENVECTORS  


   Root No.       1         2         3         4         5         6

                 1 a1      1 b2      2 a1      1 b1      3 a1      2 b2  

               -40.475   -19.955   -14.481   -12.781     5.922     8.014
  
  S   O    1    0.8373    0.0099   -0.3812    0.0000   -0.3895   -0.0424
  Px  O    1    0.0993    0.5962    0.5386    0.1227   -0.3482    0.4565
  Py  O    1    0.1304   -0.4955    0.6520    0.1391   -0.3231   -0.4343
  Pz  O    1   -0.0309   -0.0043   -0.1596    0.9826    0.0892    0.0045
  S   H    2    0.3612    0.4509    0.2422   -0.0000    0.6044   -0.4922
  S   H    3    0.3750   -0.4423    0.2354   -0.0000    0.4993    0.5992


              NET ATOMIC CHARGES AND DIPOLE CONTRIBUTIONS

  ATOM NO.   TYPE          CHARGE      No. of ELECS.   s-Pop       p-Pop       
    1          O          -0.431805        6.4318     1.69296     4.73884
    2          H           0.215158        0.7848     0.78484
    3          H           0.216647        0.7834     0.78335
 DIPOLE           X         Y         Z       TOTAL
 POINT-CHG.     0.744     0.874    -0.217     1.169
 HYBRID         0.750     0.931    -0.225     1.216
 SUM            1.494     1.805    -0.442     2.385


          ATOMIC ORBITAL ELECTRON POPULATIONS

     Atom    s        px        py        pz   
    1  O   1.69296   1.34083   1.41398   1.98403
    2  H   0.78484
    3  H   0.78335

 **********************
 *                    *
 * JOB ENDED NORMALLY *
 *                    *
 **********************



 TOTAL JOB TIME:             0.12 SECONDS

 == MOPAC DONE ==


          MOPAC Job: "./h2oTraj/h2o_18.mop" ended normally on Jun  1, 2023, at 14:00.

rm: cannot remove ‘./h2oTraj/h2o_18.cim’: No such file or directory
rm: cannot remove ‘./h2oTraj/h2o_18.end’: No such file or directory
rm: cannot remove ‘./h2oTraj/h2o_18.log’: No such file or directory
rm: cannot remove ‘./h2oTraj/h2o_18.temp’: No such file or directory
rm: cannot remove ‘./h2oTraj/h2o_18.ple’: No such file or directory
rm: cannot remove ‘./h2oTraj/h2o_18.sts’: No such file or directory
