 *******************************************************************************
 ** Site#:    0         For non-commercial use only    Version 20.173L 64BITS **
 *******************************************************************************
 ** Cite this program as: MOPAC2016, Version: 20.173L, James J. P. Stewart,   **
 ** Stewart Computational Chemistry, web-site: HTTP://OpenMOPAC.net.          **
 *******************************************************************************
 **                                                                           **
 **                                MOPAC2016                                  **
 **                                                                           **
 *******************************************************************************

                              INDO CALCULATION RESULTS

 *******************************************************************************
 *  CALCULATION DONE:                                Thu Jun  1 14:01:06 2023  *
 *  INDO       - The INDO Hamiltonian to be used
 *
 *
 *
 *                 CHARGE ON SYSTEM = 0
 *
 *
 *
 *  C.I.=(N,M) - 2 DOUBLY FILLED LEVELS USED IN A C.I. INVOLVING 4 M.O.'S
 *  T=         - A TIME OF 172800.0 SECONDS REQUESTED
 *  DUMP=N     - RESTART FILE WRITTEN EVERY 7200.0 SECONDS REQUESTED
 *  RELSCF     - DEFAULT SCF CRITERION MULTIPLIED BY 0.0000
 *              (DEFAULT SCF CRITERION = 0.00010)
 *  ALLVEC     - PRINT ALL EIGENVECTORS
 **********
 *  WARNING: Specified print options may not behave as expected with INDO
 **********
 *******************************************************************************
INDO C.I.=(4,2) AllVEC CHARGE=0 RELSCF=0.000001


   ATOM   CHEMICAL          X               Y               Z
  NUMBER   SYMBOL      (ANGSTROMS)     (ANGSTROMS)     (ANGSTROMS)
 
     1       O         -1.05135654  *   0.47335761  *   0.03696673  *
     2       H         -0.12202811  *   0.35561026  *  -0.25298999  *
     3       H         -1.27240922  *   1.34672512  *  -0.33378343  *
 


          CARTESIAN COORDINATES 

    NO.       ATOM           X           Y           Z

     1         O         -1.0514      0.4734      0.0370
     2         H         -0.1220      0.3556     -0.2530
     3         H         -1.2724      1.3467     -0.3338

           Empirical Formula: H2 O  =     3 atoms



      MOLECULAR POINT GROUP   :   C2v 


      RHF CALCULATION, NO. OF DOUBLY OCCUPIED LEVELS = 4

 WARNING: INDO only performs single-point calculations
  SCF CRITERION =    0.1000E-09

 Summary of symmetry occupancy in each shell:

 SHELL     
    1    4
    v    2
 TOTAL   6




    ROOT NO.    1           2           3           4           5           6

           -40.55448   -19.41896   -14.84864   -12.82662     6.10097     7.59105
  
  
  S  O   1   0.83295     0.00231    -0.40342    -0.00000    -0.37851    -0.01314
 PX  O   1   0.10071     0.59092     0.48367     0.31788    -0.30624     0.46033
 PY  O   1   0.11059    -0.51206     0.52066     0.43753    -0.30026    -0.41580
 PZ  O   1  -0.09558     0.04304    -0.45361     0.84114     0.27192     0.04232
  
  S  H   2   0.36901     0.44068     0.25236     0.00000     0.56438    -0.53612
  
  S  H   3   0.37218    -0.43880     0.25058     0.00000     0.52946     0.57080


 Reference determinate nber   1 is ALPHA 1 -   4
 SINGLE excitations FROM orbs   3 to   4 INTO orbs   5 to   6
 

 CI excitations=    5:        =  5
 The lowest    5 spin-adapted configurations of multiplicity=  1
     sym   eV   cm**-1 -dets- dipole oscilator X FRAG ....Excitations named from first reference determinate
                       tot  #  Debye  strength
 
   1      0.000      0.  1  1  2.4915 0.000000 0  0 (     )->       )
   2     10.940  88237.  1  1  0.2007 0.030914 1  1 (   4 )->   5   )
   3     11.666  94093.  1  1  0.7005 0.000040 1  1 (   4 )->   6   )
   4     13.867 111849.  1  1  0.6407 0.041660 1  1 (   3 )->   5   )
   5     14.583 117619.  1  1  0.1691 0.223255 1  1 (   3 )->   6   )

 Depression of ground-state after CI=          0. cm**-1 Energy=  -464.2993083 eV
 Dipole moment=  1.429050  1.538980 -1.340566 tot=  2.491537 Debyes


  CI trans.  energy frequency wavelength oscillator ---------polarization---------    dipole   ------components----- 
 st.  symm.    eV      cm-1       nm      strength       x          y         z       moment     x       y       z 

   2     10.9393506    88232.    113.34  0.030826   0.317878   0.437527   0.841144  0.335787  -0.180   0.274  -0.075
   3     11.6666043    94098.    106.27  0.000132   0.317885   0.437516   0.841147  0.746836   0.622   0.220  -0.350
   4     13.8671404   111846.     89.41  0.042029  -0.666548  -0.527805   0.526437  0.676664  -0.563  -0.201   0.317
   5     14.5832122   117622.     85.02  0.222871  -0.744499   0.664520  -0.064300  0.276576   0.182  -0.205   0.038
 
 Polarizability (au  ) xx=    1.56 xy=   -0.90 yy=    1.27 xz=    0.09 yz=   -0.02 zz=    0.55
 Polarizability (A**3) xx=    0.23 xy=   -0.13 yy=    0.19 xz=    0.01 yz=   -0.00 zz=    0.08
 ***********************************
 ***********************************
 CI Matrix
  1.0000000000  0.0000000000  0.0000000000  0.0000000000  0.0000000000 
  0.0000000000 -0.9995920321  0.0285616755  0.0000001486  0.0000000097 
  0.0000000000 -0.0285616755 -0.9995920321  0.0000001048  0.0000001463 
  0.0000000000 -0.0000001512 -0.0000000974 -0.9997758231  0.0211731795 
  0.0000000000  0.0000000171  0.0000001481  0.0211731795  0.9997758231 
 ***********************************
 ***********************************
 
 
 Major CI contributions to CI states
 
State    1  0.0000     CI coeff  CI percent
    Config       1   1.00000000  1.00000000
 Total coeff printed             1.00000000
  
State    2 10.9394     CI coeff  CI percent
    Config       2  -0.99959203  0.99918423
 Total coeff printed             0.99918423
  
State    3 11.6666     CI coeff  CI percent
    Config       3  -0.99959203  0.99918423
 Total coeff printed             0.99918423
  
State    4 13.8671     CI coeff  CI percent
    Config       4  -0.99977582  0.99955170
 Total coeff printed             0.99955170
  
State    5 14.5832     CI coeff  CI percent
    Config       5   0.99977582  0.99955170
 Total coeff printed             0.99955170
  

 -------------------------------------------------------------------------------
 INDO C.I.=(4,2) AllVEC CHARGE=0 RELSCF=0.000001




     1SCF WAS SPECIFIED, SO BFGS WAS NOT USED                 
     SCF FIELD WAS ACHIEVED                                   


                              INDO CALCULATION
                                                       MOPAC2016 (Version: 20.173L)
                                                       Thu Jun  1 14:01:06 2023




          FINAL HEAT OF FORMATION =      -8338.01054 KCAL/MOL =  -34886.23610 KJ/MOL


          TOTAL ENERGY            =       -368.67210 EV
          ELECTRONIC ENERGY       =       -464.29931 EV  POINT GROUP:     C2v 
          CORE-CORE REPULSION     =         95.62721 EV
          COSMO AREA              =         42.86 SQUARE ANGSTROMS
          COSMO VOLUME            =         25.51 CUBIC ANGSTROMS

          IONIZATION POTENTIAL    =         12.826625 EV
          HOMO LUMO ENERGIES (EV) =        -12.827  6.101
          NO. OF FILLED LEVELS    =          4
          MOLECULAR WEIGHT        =         18.0152

          MOLECULAR DIMENSIONS (Angstroms)

            Atom       Atom       Distance
            H     3    H     2     1.52060
            O     1    H     3     0.61422
            H     2    H     3     0.00000


          SCF CALCULATIONS        =          1
 
          WALL-CLOCK TIME         =          0.016 SECONDS
          COMPUTATION TIME        =          0.010 SECONDS




   ATOM   CHEMICAL          X               Y               Z
  NUMBER   SYMBOL      (ANGSTROMS)     (ANGSTROMS)     (ANGSTROMS)
 
     1       O         -1.05135654  *   0.47335761  *   0.03696673  *
     2       H         -0.12202811  *   0.35561026  *  -0.25298999  *
     3       H         -1.27240922  *   1.34672512  *  -0.33378343  *

                             CARTESIAN COORDINATES

   1    O       -1.051356542     0.473357607     0.036966726
   2    H       -0.122028109     0.355610255    -0.252989993
   3    H       -1.272409222     1.346725116    -0.333783434


           Empirical Formula: H2 O  =     3 atoms



      MOLECULAR POINT GROUP   :   C2v 


                EIGENVECTORS  


   Root No.       1         2         3         4         5         6

                 1 a1      1 b2      2 a1      1 b1      3 a1      2 b2  

               -40.554   -19.419   -14.849   -12.827     6.101     7.591
  
  S   O    1    0.8330    0.0023   -0.4034   -0.0000   -0.3785   -0.0131
  Px  O    1    0.1007    0.5909    0.4837    0.3179   -0.3062    0.4603
  Py  O    1    0.1106   -0.5121    0.5207    0.4375   -0.3003   -0.4158
  Pz  O    1   -0.0956    0.0430   -0.4536    0.8411    0.2719    0.0423
  S   H    2    0.3690    0.4407    0.2524    0.0000    0.5644   -0.5361
  S   H    3    0.3722   -0.4388    0.2506    0.0000    0.5295    0.5708


              NET ATOMIC CHARGES AND DIPOLE CONTRIBUTIONS

  ATOM NO.   TYPE          CHARGE      No. of ELECS.   s-Pop       p-Pop       
    1          O          -0.424184        6.4242     1.71312     4.71107
    2          H           0.211890        0.7881     0.78811
    3          H           0.212294        0.7877     0.78771
 DIPOLE           X         Y         Z       TOTAL
 POINT-CHG.     0.720     0.771    -0.673     1.251
 HYBRID         0.709     0.768    -0.667     1.240
 SUM            1.429     1.539    -1.341     2.492


          ATOMIC ORBITAL ELECTRON POPULATIONS

     Atom    s        px        py        pz   
    1  O   1.71312   1.38862   1.47390   1.84854
    2  H   0.78811
    3  H   0.78771

 **********************
 *                    *
 * JOB ENDED NORMALLY *
 *                    *
 **********************



 TOTAL JOB TIME:             0.03 SECONDS

 == MOPAC DONE ==


          MOPAC Job: "./h2oTraj/h2o_88.mop" ended normally on Jun  1, 2023, at 14:01.

rm: cannot remove ‘./h2oTraj/h2o_88.cim’: No such file or directory
rm: cannot remove ‘./h2oTraj/h2o_88.end’: No such file or directory
rm: cannot remove ‘./h2oTraj/h2o_88.log’: No such file or directory
rm: cannot remove ‘./h2oTraj/h2o_88.temp’: No such file or directory
rm: cannot remove ‘./h2oTraj/h2o_88.ple’: No such file or directory
rm: cannot remove ‘./h2oTraj/h2o_88.sts’: No such file or directory
