 *******************************************************************************
 ** Site#:    0         For non-commercial use only    Version 20.173L 64BITS **
 *******************************************************************************
 ** Cite this program as: MOPAC2016, Version: 20.173L, James J. P. Stewart,   **
 ** Stewart Computational Chemistry, web-site: HTTP://OpenMOPAC.net.          **
 *******************************************************************************
 **                                                                           **
 **                                MOPAC2016                                  **
 **                                                                           **
 *******************************************************************************

                              INDO CALCULATION RESULTS

 *******************************************************************************
 *  CALCULATION DONE:                                Thu Jun  1 14:01:01 2023  *
 *  INDO       - The INDO Hamiltonian to be used
 *
 *
 *
 *                 CHARGE ON SYSTEM = 0
 *
 *
 *
 *  C.I.=(N,M) - 2 DOUBLY FILLED LEVELS USED IN A C.I. INVOLVING 4 M.O.'S
 *  T=         - A TIME OF 172800.0 SECONDS REQUESTED
 *  DUMP=N     - RESTART FILE WRITTEN EVERY 7200.0 SECONDS REQUESTED
 *  RELSCF     - DEFAULT SCF CRITERION MULTIPLIED BY 0.0000
 *              (DEFAULT SCF CRITERION = 0.00010)
 *  ALLVEC     - PRINT ALL EIGENVECTORS
 **********
 *  WARNING: Specified print options may not behave as expected with INDO
 **********
 *******************************************************************************
INDO C.I.=(4,2) AllVEC CHARGE=0 RELSCF=0.000001


   ATOM   CHEMICAL          X               Y               Z
  NUMBER   SYMBOL      (ANGSTROMS)     (ANGSTROMS)     (ANGSTROMS)
 
     1       O         -1.04770676  *   0.46555314  *   0.02178677  *
     2       H         -0.13022050  *   0.46171350  *  -0.16115037  *
     3       H         -1.32214984  *   1.36450233  *  -0.18467144  *
 


          CARTESIAN COORDINATES 

    NO.       ATOM           X           Y           Z

     1         O         -1.0477      0.4656      0.0218
     2         H         -0.1302      0.4617     -0.1612
     3         H         -1.3221      1.3645     -0.1847

           Empirical Formula: H2 O  =     3 atoms



      MOLECULAR POINT GROUP   :   C2v 


      RHF CALCULATION, NO. OF DOUBLY OCCUPIED LEVELS = 4

 WARNING: INDO only performs single-point calculations
  SCF CRITERION =    0.1000E-09

 Summary of symmetry occupancy in each shell:

 SHELL     
    1    4
    v    2
 TOTAL   6




    ROOT NO.    1           2           3           4           5           6

           -41.15500   -19.75949   -14.74563   -12.82753     6.43902     8.10150
  
  
  S  O   1   0.82839    -0.00895    -0.40020     0.00000    -0.38838    -0.05186
 PX  O   1   0.10493     0.62924     0.48072     0.18914    -0.21540    -0.52894
 PY  O   1   0.13032    -0.46482     0.64247     0.27429    -0.41668     0.32457
 PZ  O   1  -0.05896     0.00899    -0.28334     0.94286     0.16443     0.01169
  
  S  H   2   0.38223     0.43593     0.23735    -0.00000     0.47850     0.61528
  
  S  H   3   0.36904    -0.44476     0.24365    -0.00000     0.61086    -0.48320


 Reference determinate nber   1 is ALPHA 1 -   4
 SINGLE excitations FROM orbs   3 to   4 INTO orbs   5 to   6
 

 CI excitations=    5:        =  5
 The lowest    5 spin-adapted configurations of multiplicity=  1
     sym   eV   cm**-1 -dets- dipole oscilator X FRAG ....Excitations named from first reference determinate
                       tot  #  Debye  strength
 
   1      0.000      0.  1  1  2.4514 0.000000 0  0 (     )->       )
   2     11.282  91000.  1  1  0.6585 0.033566 1  1 (   4 )->   5   )
   3     12.125  97792.  1  1  0.9415 0.000643 1  1 (   4 )->   6   )
   4     13.979 112745.  1  1  0.8902 0.032692 1  1 (   3 )->   5   )
   5     14.878 120000.  1  1  0.6135 0.204165 1  1 (   3 )->   6   )

 Depression of ground-state after CI=          0. cm**-1 Energy=  -467.0567461 eV
 Dipole moment=  1.383081  1.852066 -0.816240 tot=  2.451389 Debyes


  CI trans.  energy frequency wavelength oscillator ---------polarization---------    dipole   ------components----- 
 st.  symm.    eV      cm-1       nm      strength       x          y         z       moment     x       y       z 

   2     11.2738591    90930.    109.97  0.032317   0.189145   0.274288   0.942863  1.139452   0.995  -0.553  -0.039
   3     12.1331904    97861.    102.19  0.001960   0.189145   0.274288   0.942863  1.294623  -0.465   1.182  -0.251
   4     13.9749838   112716.     88.72  0.036432  -0.125062  -0.945647   0.300187  1.122039   0.397  -1.026   0.219
   5     14.8815727   120028.     83.31  0.200222   0.830889  -0.556418  -0.004814  0.919739  -0.767   0.507   0.006
 
 Polarizability (au  ) xx=    1.41 xy=   -0.85 yy=    1.04 xz=    0.08 yz=    0.04 zz=    0.57
 Polarizability (A**3) xx=    0.21 xy=   -0.13 yy=    0.15 xz=    0.01 yz=    0.01 zz=    0.08
 ***********************************
 ***********************************
 CI Matrix
  1.0000000000  0.0000000000  0.0000000000  0.0000000000  0.0000000000 
  0.0000000000 -0.9949730249  0.1001432964 -0.0000000000  0.0000000000 
  0.0000000000 -0.1001432964 -0.9949730249 -0.0000000000 -0.0000000000 
  0.0000000000  0.0000000000  0.0000000000 -0.9980510962  0.0624019976 
  0.0000000000 -0.0000000000 -0.0000000000  0.0624019976  0.9980510962 
 ***********************************
 ***********************************
 
 
 Major CI contributions to CI states
 
State    1  0.0000     CI coeff  CI percent
    Config       1   1.00000000  1.00000000
 Total coeff printed             1.00000000
  
State    2 11.2739     CI coeff  CI percent
    Config       2  -0.99497302  0.98997132
    Config       3   0.10014330  0.01002868
 Total coeff printed             1.00000000
  
State    3 12.1332     CI coeff  CI percent
    Config       2  -0.10014330  0.01002868
    Config       3  -0.99497302  0.98997132
 Total coeff printed             1.00000000
  
State    4 13.9750     CI coeff  CI percent
    Config       4  -0.99805110  0.99610599
    Config       5   0.06240200  0.00389401
 Total coeff printed             1.00000000
  
State    5 14.8816     CI coeff  CI percent
    Config       4   0.06240200  0.00389401
    Config       5   0.99805110  0.99610599
 Total coeff printed             1.00000000
  

 -------------------------------------------------------------------------------
 INDO C.I.=(4,2) AllVEC CHARGE=0 RELSCF=0.000001




     1SCF WAS SPECIFIED, SO BFGS WAS NOT USED                 
     SCF FIELD WAS ACHIEVED                                   


                              INDO CALCULATION
                                                       MOPAC2016 (Version: 20.173L)
                                                       Thu Jun  1 14:01:01 2023




          FINAL HEAT OF FORMATION =      -8374.56022 KCAL/MOL =  -35039.15994 KJ/MOL


          TOTAL ENERGY            =       -370.25704 EV
          ELECTRONIC ENERGY       =       -467.05675 EV  POINT GROUP:     C2v 
          CORE-CORE REPULSION     =         96.79971 EV
          COSMO AREA              =         42.34 SQUARE ANGSTROMS
          COSMO VOLUME            =         25.10 CUBIC ANGSTROMS

          IONIZATION POTENTIAL    =         12.827526 EV
          HOMO LUMO ENERGIES (EV) =        -12.828  6.439
          NO. OF FILLED LEVELS    =          4
          MOLECULAR WEIGHT        =         18.0152

          MOLECULAR DIMENSIONS (Angstroms)

            Atom       Atom       Distance
            H     3    H     2     1.49542
            O     1    H     3     0.58421
            H     2    O     1     0.00000


          SCF CALCULATIONS        =          1
 
          WALL-CLOCK TIME         =          0.066 SECONDS
          COMPUTATION TIME        =          0.011 SECONDS




   ATOM   CHEMICAL          X               Y               Z
  NUMBER   SYMBOL      (ANGSTROMS)     (ANGSTROMS)     (ANGSTROMS)
 
     1       O         -1.04770676  *   0.46555314  *   0.02178677  *
     2       H         -0.13022050  *   0.46171350  *  -0.16115037  *
     3       H         -1.32214984  *   1.36450233  *  -0.18467144  *

                             CARTESIAN COORDINATES

   1    O       -1.047706763     0.465553138     0.021786774
   2    H       -0.130220495     0.461713496    -0.161150369
   3    H       -1.322149837     1.364502332    -0.184671443


           Empirical Formula: H2 O  =     3 atoms



      MOLECULAR POINT GROUP   :   C2v 


                EIGENVECTORS  


   Root No.       1         2         3         4         5         6

                 1 a1      1 b2      2 a1      1 b1      3 a1      2 b2  

               -41.155   -19.759   -14.746   -12.828     6.439     8.102
  
  S   O    1    0.8284   -0.0090   -0.4002    0.0000   -0.3884   -0.0519
  Px  O    1    0.1049    0.6292    0.4807    0.1891   -0.2154   -0.5289
  Py  O    1    0.1303   -0.4648    0.6425    0.2743   -0.4167    0.3246
  Pz  O    1   -0.0590    0.0090   -0.2833    0.9429    0.1644    0.0117
  S   H    2    0.3822    0.4359    0.2374   -0.0000    0.4785    0.6153
  S   H    3    0.3690   -0.4448    0.2437   -0.0000    0.6109   -0.4832


              NET ATOMIC CHARGES AND DIPOLE CONTRIBUTIONS

  ATOM NO.   TYPE          CHARGE      No. of ELECS.   s-Pop       p-Pop       
    1          O          -0.428321        6.4283     1.69295     4.73537
    2          H           0.215053        0.7849     0.78495
    3          H           0.213268        0.7867     0.78673
 DIPOLE           X         Y         Z       TOTAL
 POINT-CHG.     0.667     0.917    -0.400     1.202
 HYBRID         0.717     0.935    -0.416     1.249
 SUM            1.383     1.852    -0.816     2.452


          ATOMIC ORBITAL ELECTRON POPULATIONS

     Atom    s        px        py        pz   
    1  O   1.69295   1.34765   1.44206   1.94565
    2  H   0.78495
    3  H   0.78673

 **********************
 *                    *
 * JOB ENDED NORMALLY *
 *                    *
 **********************



 TOTAL JOB TIME:             0.13 SECONDS

 == MOPAC DONE ==


          MOPAC Job: "./h2oTraj/h2o_50.mop" ended normally on Jun  1, 2023, at 14:01.

rm: cannot remove ‘./h2oTraj/h2o_50.cim’: No such file or directory
rm: cannot remove ‘./h2oTraj/h2o_50.end’: No such file or directory
rm: cannot remove ‘./h2oTraj/h2o_50.log’: No such file or directory
rm: cannot remove ‘./h2oTraj/h2o_50.temp’: No such file or directory
rm: cannot remove ‘./h2oTraj/h2o_50.ple’: No such file or directory
rm: cannot remove ‘./h2oTraj/h2o_50.sts’: No such file or directory
