 *******************************************************************************
 ** Site#:    0         For non-commercial use only    Version 20.173L 64BITS **
 *******************************************************************************
 ** Cite this program as: MOPAC2016, Version: 20.173L, James J. P. Stewart,   **
 ** Stewart Computational Chemistry, web-site: HTTP://OpenMOPAC.net.          **
 *******************************************************************************
 **                                                                           **
 **                                MOPAC2016                                  **
 **                                                                           **
 *******************************************************************************

                              INDO CALCULATION RESULTS

 *******************************************************************************
 *  CALCULATION DONE:                                Thu Jun  1 14:00:57 2023  *
 *  INDO       - The INDO Hamiltonian to be used
 *
 *
 *
 *                 CHARGE ON SYSTEM = 0
 *
 *
 *
 *  C.I.=(N,M) - 2 DOUBLY FILLED LEVELS USED IN A C.I. INVOLVING 4 M.O.'S
 *  T=         - A TIME OF 172800.0 SECONDS REQUESTED
 *  DUMP=N     - RESTART FILE WRITTEN EVERY 7200.0 SECONDS REQUESTED
 *  RELSCF     - DEFAULT SCF CRITERION MULTIPLIED BY 0.0000
 *              (DEFAULT SCF CRITERION = 0.00010)
 *  ALLVEC     - PRINT ALL EIGENVECTORS
 **********
 *  WARNING: Specified print options may not behave as expected with INDO
 **********
 *******************************************************************************
INDO C.I.=(4,2) AllVEC CHARGE=0 RELSCF=0.000001


   ATOM   CHEMICAL          X               Y               Z
  NUMBER   SYMBOL      (ANGSTROMS)     (ANGSTROMS)     (ANGSTROMS)
 
     1       O         -1.05279408  *   0.46706037  *   0.01368073  *
     2       H         -0.10247318  *   0.41792383  *  -0.11435462  *
     3       H         -1.26914615  *   1.38436763  *  -0.10279983  *
 


          CARTESIAN COORDINATES 

    NO.       ATOM           X           Y           Z

     1         O         -1.0528      0.4671      0.0137
     2         H         -0.1025      0.4179     -0.1144
     3         H         -1.2691      1.3844     -0.1028

           Empirical Formula: H2 O  =     3 atoms



      MOLECULAR POINT GROUP   :   C2v 


      RHF CALCULATION, NO. OF DOUBLY OCCUPIED LEVELS = 4

 WARNING: INDO only performs single-point calculations
  SCF CRITERION =    0.1000E-09

 Summary of symmetry occupancy in each shell:

 SHELL     
    1    4
    v    2
 TOTAL   6




    ROOT NO.    1           2           3           4           5           6

           -40.97842   -19.79330   -14.69556   -12.81873     6.33319     8.04223
  
  
  S  O   1   0.83055     0.00361    -0.39642     0.00000    -0.39069    -0.01974
 PX  O   1   0.10773     0.59886     0.53346     0.13984    -0.33027     0.46534
 PY  O   1   0.13307    -0.50101     0.64052     0.15712    -0.35063    -0.41640
 PZ  O   1  -0.03680    -0.00514    -0.17925     0.97763     0.10359     0.00036
  
  S  H   2   0.37122     0.44348     0.24196    -0.00000     0.57435    -0.52641
  
  S  H   3   0.37645    -0.44005     0.23943    -0.00000     0.52415     0.57670


 Reference determinate nber   1 is ALPHA 1 -   4
 SINGLE excitations FROM orbs   3 to   4 INTO orbs   5 to   6
 

 CI excitations=    5:        =  5
 The lowest    5 spin-adapted configurations of multiplicity=  1
     sym   eV   cm**-1 -dets- dipole oscilator X FRAG ....Excitations named from first reference determinate
                       tot  #  Debye  strength
 
   1      0.000      0.  1  1  2.4389 0.000000 0  0 (     )->       )
   2     11.193  90276.  1  1  0.2809 0.033696 1  1 (   4 )->   5   )
   3     12.053  97218.  1  1  0.7710 0.000093 1  1 (   4 )->   6   )
   4     13.849 111704.  1  1  0.6810 0.028528 1  1 (   3 )->   5   )
   5     14.770 119131.  1  1  0.2388 0.208605 1  1 (   3 )->   6   )

 Depression of ground-state after CI=          0. cm**-1 Energy=  -466.4410460 eV
 Dipole moment=  1.526566  1.831711 -0.512745 tot=  2.438949 Debyes


  CI trans.  energy frequency wavelength oscillator ---------polarization---------    dipole   ------components----- 
 st.  symm.    eV      cm-1       nm      strength       x          y         z       moment     x       y       z 

   2     11.1914761    90266.    110.78  0.033512   0.139839   0.157122   0.977629  0.465968  -0.260   0.386  -0.025
   3     12.0546812    97228.    102.85  0.000286   0.139839   0.157122   0.977629  0.849107   0.787   0.277  -0.157
   4     13.8489212   111699.     89.53  0.029082  -0.766594  -0.607740   0.207327  0.732210  -0.677  -0.244   0.136
   5     14.7708518   119135.     83.94  0.208020  -0.755949   0.654624   0.002920  0.360266   0.255  -0.254   0.004
 
 Polarizability (au  ) xx=    1.42 xy=   -0.88 yy=    1.05 xz=    0.02 yz=    0.05 zz=    0.59
 Polarizability (A**3) xx=    0.21 xy=   -0.13 yy=    0.16 xz=    0.00 yz=    0.01 zz=    0.09
 ***********************************
 ***********************************
 CI Matrix
  1.0000000000  0.0000000000  0.0000000000  0.0000000000  0.0000000000 
  0.0000000000 -0.9992660997  0.0383048569 -0.0000000000  0.0000000000 
  0.0000000000 -0.0383048569 -0.9992660997  0.0000000000 -0.0000000000 
  0.0000000000  0.0000000000 -0.0000000000 -0.9997215332  0.0235977972 
  0.0000000000  0.0000000000 -0.0000000000  0.0235977972  0.9997215332 
 ***********************************
 ***********************************
 
 
 Major CI contributions to CI states
 
State    1  0.0000     CI coeff  CI percent
    Config       1   1.00000000  1.00000000
 Total coeff printed             1.00000000
  
State    2 11.1915     CI coeff  CI percent
    Config       2  -0.99926610  0.99853274
 Total coeff printed             0.99853274
  
State    3 12.0547     CI coeff  CI percent
    Config       3  -0.99926610  0.99853274
 Total coeff printed             0.99853274
  
State    4 13.8489     CI coeff  CI percent
    Config       4  -0.99972153  0.99944314
 Total coeff printed             0.99944314
  
State    5 14.7709     CI coeff  CI percent
    Config       5   0.99972153  0.99944314
 Total coeff printed             0.99944314
  

 -------------------------------------------------------------------------------
 INDO C.I.=(4,2) AllVEC CHARGE=0 RELSCF=0.000001




     1SCF WAS SPECIFIED, SO BFGS WAS NOT USED                 
     SCF FIELD WAS ACHIEVED                                   


                              INDO CALCULATION
                                                       MOPAC2016 (Version: 20.173L)
                                                       Thu Jun  1 14:00:57 2023




          FINAL HEAT OF FORMATION =      -8366.83350 KCAL/MOL =  -35006.83136 KJ/MOL


          TOTAL ENERGY            =       -369.92198 EV
          ELECTRONIC ENERGY       =       -466.44105 EV  POINT GROUP:     C2v 
          CORE-CORE REPULSION     =         96.51907 EV
          COSMO AREA              =         42.42 SQUARE ANGSTROMS
          COSMO VOLUME            =         25.14 CUBIC ANGSTROMS

          IONIZATION POTENTIAL    =         12.818731 EV
          HOMO LUMO ENERGIES (EV) =        -12.819  6.333
          NO. OF FILLED LEVELS    =          4
          MOLECULAR WEIGHT        =         18.0152

          MOLECULAR DIMENSIONS (Angstroms)

            Atom       Atom       Distance
            H     3    H     2     1.51502
            H     2    O     1     0.58139
            O     1    H     2     0.00000


          SCF CALCULATIONS        =          1
 
          WALL-CLOCK TIME         =          0.020 SECONDS
          COMPUTATION TIME        =          0.012 SECONDS




   ATOM   CHEMICAL          X               Y               Z
  NUMBER   SYMBOL      (ANGSTROMS)     (ANGSTROMS)     (ANGSTROMS)
 
     1       O         -1.05279408  *   0.46706037  *   0.01368073  *
     2       H         -0.10247318  *   0.41792383  *  -0.11435462  *
     3       H         -1.26914615  *   1.38436763  *  -0.10279983  *

                             CARTESIAN COORDINATES

   1    O       -1.052794076     0.467060373     0.013680730
   2    H       -0.102473184     0.417923826    -0.114354618
   3    H       -1.269146145     1.384367631    -0.102799825


           Empirical Formula: H2 O  =     3 atoms



      MOLECULAR POINT GROUP   :   C2v 


                EIGENVECTORS  


   Root No.       1         2         3         4         5         6

                 1 a1      1 b2      2 a1      1 b1      3 a1      2 b2  

               -40.978   -19.793   -14.696   -12.819     6.333     8.042
  
  S   O    1    0.8305    0.0036   -0.3964    0.0000   -0.3907   -0.0197
  Px  O    1    0.1077    0.5989    0.5335    0.1398   -0.3303    0.4653
  Py  O    1    0.1331   -0.5010    0.6405    0.1571   -0.3506   -0.4164
  Pz  O    1   -0.0368   -0.0051   -0.1792    0.9776    0.1036    0.0004
  S   H    2    0.3712    0.4435    0.2420   -0.0000    0.5743   -0.5264
  S   H    3    0.3765   -0.4400    0.2394   -0.0000    0.5242    0.5767


              NET ATOMIC CHARGES AND DIPOLE CONTRIBUTIONS

  ATOM NO.   TYPE          CHARGE      No. of ELECS.   s-Pop       p-Pop       
    1          O          -0.428591        6.4286     1.69396     4.73463
    2          H           0.213959        0.7860     0.78604
    3          H           0.214632        0.7854     0.78537
 DIPOLE           X         Y         Z       TOTAL
 POINT-CHG.     0.754     0.895    -0.252     1.197
 HYBRID         0.773     0.937    -0.261     1.242
 SUM            1.527     1.832    -0.513     2.439


          ATOMIC ORBITAL ELECTRON POPULATIONS

     Atom    s        px        py        pz   
    1  O   1.69396   1.34876   1.40734   1.97854
    2  H   0.78604
    3  H   0.78537

 **********************
 *                    *
 * JOB ENDED NORMALLY *
 *                    *
 **********************



 TOTAL JOB TIME:             0.04 SECONDS

 == MOPAC DONE ==


          MOPAC Job: "./h2oTraj/h2o_21.mop" ended normally on Jun  1, 2023, at 14:00.

rm: cannot remove ‘./h2oTraj/h2o_21.cim’: No such file or directory
rm: cannot remove ‘./h2oTraj/h2o_21.end’: No such file or directory
rm: cannot remove ‘./h2oTraj/h2o_21.log’: No such file or directory
rm: cannot remove ‘./h2oTraj/h2o_21.temp’: No such file or directory
rm: cannot remove ‘./h2oTraj/h2o_21.ple’: No such file or directory
rm: cannot remove ‘./h2oTraj/h2o_21.sts’: No such file or directory
