 *******************************************************************************
 ** Site#:    0         For non-commercial use only    Version 20.173L 64BITS **
 *******************************************************************************
 ** Cite this program as: MOPAC2016, Version: 20.173L, James J. P. Stewart,   **
 ** Stewart Computational Chemistry, web-site: HTTP://OpenMOPAC.net.          **
 *******************************************************************************
 **                                                                           **
 **                                MOPAC2016                                  **
 **                                                                           **
 *******************************************************************************

                              INDO CALCULATION RESULTS

 *******************************************************************************
 *  CALCULATION DONE:                                Thu Jun  1 14:01:04 2023  *
 *  INDO       - The INDO Hamiltonian to be used
 *
 *
 *
 *                 CHARGE ON SYSTEM = 0
 *
 *
 *
 *  C.I.=(N,M) - 2 DOUBLY FILLED LEVELS USED IN A C.I. INVOLVING 4 M.O.'S
 *  T=         - A TIME OF 172800.0 SECONDS REQUESTED
 *  DUMP=N     - RESTART FILE WRITTEN EVERY 7200.0 SECONDS REQUESTED
 *  RELSCF     - DEFAULT SCF CRITERION MULTIPLIED BY 0.0000
 *              (DEFAULT SCF CRITERION = 0.00010)
 *  ALLVEC     - PRINT ALL EIGENVECTORS
 **********
 *  WARNING: Specified print options may not behave as expected with INDO
 **********
 *******************************************************************************
INDO C.I.=(4,2) AllVEC CHARGE=0 RELSCF=0.000001


   ATOM   CHEMICAL          X               Y               Z
  NUMBER   SYMBOL      (ANGSTROMS)     (ANGSTROMS)     (ANGSTROMS)
 
     1       O         -1.04913000  *   0.47230274  *   0.03205358  *
     2       H         -0.13721313  *   0.37579999  *  -0.18259535  *
     3       H         -1.29256618  *   1.34327934  *  -0.32619157  *
 


          CARTESIAN COORDINATES 

    NO.       ATOM           X           Y           Z

     1         O         -1.0491      0.4723      0.0321
     2         H         -0.1372      0.3758     -0.1826
     3         H         -1.2926      1.3433     -0.3262

           Empirical Formula: H2 O  =     3 atoms



      MOLECULAR POINT GROUP   :   C2v 


      RHF CALCULATION, NO. OF DOUBLY OCCUPIED LEVELS = 4

 WARNING: INDO only performs single-point calculations
  SCF CRITERION =    0.1000E-09

 Summary of symmetry occupancy in each shell:

 SHELL     
    1    4
    v    2
 TOTAL   6




    ROOT NO.    1           2           3           4           5           6

           -40.94507   -19.73607   -14.72135   -12.82087     6.28897     8.01337
  
  
  S  O   1   0.83057    -0.01064    -0.39778    -0.00000    -0.38532    -0.05771
 PX  O   1   0.10840     0.60314     0.49901     0.24975    -0.22118    -0.51397
 PY  O   1   0.10933    -0.49185     0.55114     0.42722    -0.37191     0.34861
 PZ  O   1  -0.08491     0.06847    -0.41439     0.86897     0.24642    -0.02367
  
  S  H   2   0.38125     0.43629     0.23835     0.00000     0.47065     0.62127
  
  S  H   3   0.36590    -0.44626     0.24592     0.00000     0.61811    -0.47375


 Reference determinate nber   1 is ALPHA 1 -   4
 SINGLE excitations FROM orbs   3 to   4 INTO orbs   5 to   6
 

 CI excitations=    5:        =  5
 The lowest    5 spin-adapted configurations of multiplicity=  1
     sym   eV   cm**-1 -dets- dipole oscilator X FRAG ....Excitations named from first reference determinate
                       tot  #  Debye  strength
 
   1      0.000      0.  1  1  2.4475 0.000000 0  0 (     )->       )
   2     11.135  89813.  1  1  0.7360 0.032609 1  1 (   4 )->   5   )
   3     12.043  97134.  1  1  0.9856 0.000791 1  1 (   4 )->   6   )
   4     13.839 111616.  1  1  0.9447 0.034503 1  1 (   3 )->   5   )
   5     14.785 119246.  1  1  0.6894 0.206504 1  1 (   3 )->   6   )

 Depression of ground-state after CI=          0. cm**-1 Energy=  -466.2243774 eV
 Dipole moment=  1.433550  1.585938 -1.191734 tot=  2.447549 Debyes


  CI trans.  energy frequency wavelength oscillator ---------polarization---------    dipole   ------components----- 
 st.  symm.    eV      cm-1       nm      strength       x          y         z       moment     x       y       z 

   2     11.1255379    89734.    111.44  0.031244   0.249750   0.427223   0.868968  1.231038   1.029  -0.674   0.036
   3     12.0528668    97213.    102.87  0.002239   0.249748   0.427224   0.868968  1.363319  -0.484   1.193  -0.447
   4     13.8343241   111582.     89.62  0.038973  -0.121662  -0.876450   0.465869  1.201900   0.430  -1.051   0.393
   5     14.7887472   119280.     83.84  0.201772   0.801803  -0.594386   0.061780  1.015321  -0.809   0.609  -0.067
 
 Polarizability (au  ) xx=    1.36 xy=   -0.86 yy=    1.18 xz=    0.20 yz=   -0.04 zz=    0.56
 Polarizability (A**3) xx=    0.20 xy=   -0.13 yy=    0.17 xz=    0.03 yz=   -0.01 zz=    0.08
 ***********************************
 ***********************************
 CI Matrix
  1.0000000000  0.0000000000  0.0000000000  0.0000000000  0.0000000000 
  0.0000000000 -0.9946911904  0.1029049842  0.0000000952 -0.0000000074 
  0.0000000000 -0.1029049842 -0.9946911904  0.0000000512  0.0000001041 
  0.0000000000 -0.0000000995 -0.0000000341 -0.9977901198  0.0664445389 
  0.0000000000  0.0000000100  0.0000001068  0.0664445389  0.9977901198 
 ***********************************
 ***********************************
 
 
 Major CI contributions to CI states
 
State    1  0.0000     CI coeff  CI percent
    Config       1   1.00000000  1.00000000
 Total coeff printed             1.00000000
  
State    2 11.1255     CI coeff  CI percent
    Config       2  -0.99469119  0.98941056
    Config       3   0.10290498  0.01058944
 Total coeff printed             1.00000000
  
State    3 12.0529     CI coeff  CI percent
    Config       2  -0.10290498  0.01058944
    Config       3  -0.99469119  0.98941056
 Total coeff printed             1.00000000
  
State    4 13.8343     CI coeff  CI percent
    Config       4  -0.99779012  0.99558512
    Config       5   0.06644454  0.00441488
 Total coeff printed             1.00000000
  
State    5 14.7887     CI coeff  CI percent
    Config       4   0.06644454  0.00441488
    Config       5   0.99779012  0.99558512
 Total coeff printed             1.00000000
  

 -------------------------------------------------------------------------------
 INDO C.I.=(4,2) AllVEC CHARGE=0 RELSCF=0.000001




     1SCF WAS SPECIFIED, SO BFGS WAS NOT USED                 
     SCF FIELD WAS ACHIEVED                                   


                              INDO CALCULATION
                                                       MOPAC2016 (Version: 20.173L)
                                                       Thu Jun  1 14:01:04 2023




          FINAL HEAT OF FORMATION =      -8363.83513 KCAL/MOL =  -34994.28617 KJ/MOL


          TOTAL ENERGY            =       -369.79196 EV
          ELECTRONIC ENERGY       =       -466.22438 EV  POINT GROUP:     C2v 
          CORE-CORE REPULSION     =         96.43242 EV
          COSMO AREA              =         42.37 SQUARE ANGSTROMS
          COSMO VOLUME            =         25.13 CUBIC ANGSTROMS

          IONIZATION POTENTIAL    =         12.820871 EV
          HOMO LUMO ENERGIES (EV) =        -12.821  6.289
          NO. OF FILLED LEVELS    =          4
          MOLECULAR WEIGHT        =         18.0152

          MOLECULAR DIMENSIONS (Angstroms)

            Atom       Atom       Distance
            H     3    H     2     1.51376
            H     2    O     1     0.58595
            H     2    O     1     0.00000


          SCF CALCULATIONS        =          1
 
          WALL-CLOCK TIME         =          0.262 SECONDS
          COMPUTATION TIME        =          0.012 SECONDS




   ATOM   CHEMICAL          X               Y               Z
  NUMBER   SYMBOL      (ANGSTROMS)     (ANGSTROMS)     (ANGSTROMS)
 
     1       O         -1.04913000  *   0.47230274  *   0.03205358  *
     2       H         -0.13721313  *   0.37579999  *  -0.18259535  *
     3       H         -1.29256618  *   1.34327934  *  -0.32619157  *

                             CARTESIAN COORDINATES

   1    O       -1.049129997     0.472302737     0.032053576
   2    H       -0.137213132     0.375799987    -0.182595351
   3    H       -1.292566179     1.343279344    -0.326191566


           Empirical Formula: H2 O  =     3 atoms



      MOLECULAR POINT GROUP   :   C2v 


                EIGENVECTORS  


   Root No.       1         2         3         4         5         6

                 1 a1      1 b2      2 a1      1 b1      3 a1      2 b2  

               -40.945   -19.736   -14.721   -12.821     6.289     8.013
  
  S   O    1    0.8306   -0.0106   -0.3978   -0.0000   -0.3853   -0.0577
  Px  O    1    0.1084    0.6031    0.4990    0.2498   -0.2212   -0.5140
  Py  O    1    0.1093   -0.4919    0.5511    0.4272   -0.3719    0.3486
  Pz  O    1   -0.0849    0.0685   -0.4144    0.8690    0.2464   -0.0237
  S   H    2    0.3813    0.4363    0.2384    0.0000    0.4706    0.6213
  S   H    3    0.3659   -0.4463    0.2459    0.0000    0.6181   -0.4738


              NET ATOMIC CHARGES AND DIPOLE CONTRIBUTIONS

  ATOM NO.   TYPE          CHARGE      No. of ELECS.   s-Pop       p-Pop       
    1          O          -0.427968        6.4280     1.69639     4.73157
    2          H           0.214977        0.7850     0.78502
    3          H           0.212991        0.7870     0.78701
 DIPOLE           X         Y         Z       TOTAL
 POINT-CHG.     0.693     0.791    -0.588     1.205
 HYBRID         0.741     0.795    -0.604     1.243
 SUM            1.434     1.586    -1.192     2.448


          ATOMIC ORBITAL ELECTRON POPULATIONS

     Atom    s        px        py        pz   
    1  O   1.69639   1.37383   1.48030   1.87744
    2  H   0.78502
    3  H   0.78701

 **********************
 *                    *
 * JOB ENDED NORMALLY *
 *                    *
 **********************



 TOTAL JOB TIME:             0.54 SECONDS

 == MOPAC DONE ==


          MOPAC Job: "./h2oTraj/h2o_80.mop" ended normally on Jun  1, 2023, at 14:01.

rm: cannot remove ‘./h2oTraj/h2o_80.cim’: No such file or directory
rm: cannot remove ‘./h2oTraj/h2o_80.end’: No such file or directory
rm: cannot remove ‘./h2oTraj/h2o_80.log’: No such file or directory
rm: cannot remove ‘./h2oTraj/h2o_80.temp’: No such file or directory
rm: cannot remove ‘./h2oTraj/h2o_80.ple’: No such file or directory
rm: cannot remove ‘./h2oTraj/h2o_80.sts’: No such file or directory
