 *******************************************************************************
 ** Site#:    0         For non-commercial use only    Version 20.173L 64BITS **
 *******************************************************************************
 ** Cite this program as: MOPAC2016, Version: 20.173L, James J. P. Stewart,   **
 ** Stewart Computational Chemistry, web-site: HTTP://OpenMOPAC.net.          **
 *******************************************************************************
 **                                                                           **
 **                                MOPAC2016                                  **
 **                                                                           **
 *******************************************************************************

                              INDO CALCULATION RESULTS

 *******************************************************************************
 *  CALCULATION DONE:                                Thu Jun  1 14:01:06 2023  *
 *  INDO       - The INDO Hamiltonian to be used
 *
 *
 *
 *                 CHARGE ON SYSTEM = 0
 *
 *
 *
 *  C.I.=(N,M) - 2 DOUBLY FILLED LEVELS USED IN A C.I. INVOLVING 4 M.O.'S
 *  T=         - A TIME OF 172800.0 SECONDS REQUESTED
 *  DUMP=N     - RESTART FILE WRITTEN EVERY 7200.0 SECONDS REQUESTED
 *  RELSCF     - DEFAULT SCF CRITERION MULTIPLIED BY 0.0000
 *              (DEFAULT SCF CRITERION = 0.00010)
 *  ALLVEC     - PRINT ALL EIGENVECTORS
 **********
 *  WARNING: Specified print options may not behave as expected with INDO
 **********
 *******************************************************************************
INDO C.I.=(4,2) AllVEC CHARGE=0 RELSCF=0.000001


   ATOM   CHEMICAL          X               Y               Z
  NUMBER   SYMBOL      (ANGSTROMS)     (ANGSTROMS)     (ANGSTROMS)
 
     1       O         -1.04733701  *   0.47386032  *   0.03594029  *
     2       H         -0.13104849  *   0.34140597  *  -0.24003520  *
     3       H         -1.32719095  *   1.35294977  *  -0.33044555  *
 


          CARTESIAN COORDINATES 

    NO.       ATOM           X           Y           Z

     1         O         -1.0473      0.4739      0.0359
     2         H         -0.1310      0.3414     -0.2400
     3         H         -1.3272      1.3529     -0.3304

           Empirical Formula: H2 O  =     3 atoms



      MOLECULAR POINT GROUP   :   C2v 


      RHF CALCULATION, NO. OF DOUBLY OCCUPIED LEVELS = 4

 WARNING: INDO only performs single-point calculations
  SCF CRITERION =    0.1000E-09

 Summary of symmetry occupancy in each shell:

 SHELL     
    1    4
    v    2
 TOTAL   6




    ROOT NO.    1           2           3           4           5           6

           -40.37372   -19.71282   -14.62015   -12.79757     5.89691     7.77812
  
  
  S  O   1   0.83695    -0.00981    -0.38915     0.00000    -0.38203    -0.04500
 PX  O   1   0.09955     0.59850     0.47455     0.31657    -0.22088    -0.50763
 PY  O   1   0.10248    -0.49513     0.53389     0.44902    -0.34995     0.36772
 PZ  O   1  -0.09279     0.03932    -0.46670     0.83556     0.27174    -0.00528
  
  S  H   2   0.37442     0.44036     0.24189    -0.00000     0.49133     0.60496
  
  S  H   3   0.36096    -0.44843     0.24899    -0.00000     0.60627    -0.48894


 Reference determinate nber   1 is ALPHA 1 -   4
 SINGLE excitations FROM orbs   3 to   4 INTO orbs   5 to   6
 

 CI excitations=    5:        =  5
 The lowest    5 spin-adapted configurations of multiplicity=  1
     sym   eV   cm**-1 -dets- dipole oscilator X FRAG ....Excitations named from first reference determinate
                       tot  #  Debye  strength
 
   1      0.000      0.  1  1  2.4279 0.000000 0  0 (     )->       )
   2     10.764  86820.  1  1  0.5972 0.030986 1  1 (   4 )->   5   )
   3     11.806  95221.  1  1  0.9016 0.000471 1  1 (   4 )->   6   )
   4     13.439 108396.  1  1  0.8472 0.033251 1  1 (   3 )->   5   )
   5     14.485 116832.  1  1  0.5586 0.215761 1  1 (   3 )->   6   )

 Depression of ground-state after CI=          0. cm**-1 Energy=  -464.0066326 eV
 Dipole moment=  1.350114  1.519316 -1.327985 tot=  2.427895 Debyes


  CI trans.  energy frequency wavelength oscillator ---------polarization---------    dipole   ------components----- 
 st.  symm.    eV      cm-1       nm      strength       x          y         z       moment     x       y       z 

   2     10.7589856    86777.    115.24  0.030298   0.316570   0.449023   0.835561  0.960689   0.796  -0.538  -0.013
   3     11.8112159    95264.    104.97  0.001210   0.316574   0.449020   0.835560  1.152461  -0.299   1.024  -0.437
   4     13.4369537   108377.     92.27  0.035922  -0.191133  -0.832602   0.519848  1.028358   0.283  -0.912   0.382
   5     14.4877309   116852.     85.58  0.212911   0.789217  -0.613352   0.030598  0.808607  -0.629   0.506  -0.034
 
 Polarizability (au  ) xx=    1.48 xy=   -0.94 yy=    1.28 xz=    0.17 yz=   -0.01 zz=    0.54
 Polarizability (A**3) xx=    0.22 xy=   -0.14 yy=    0.19 xz=    0.03 yz=   -0.00 zz=    0.08
 ***********************************
 ***********************************
 CI Matrix
  1.0000000000  0.0000000000  0.0000000000  0.0000000000  0.0000000000 
  0.0000000000 -0.9974634062  0.0711811304 -0.0000001620  0.0000000019 
  0.0000000000 -0.0711811304 -0.9974634062 -0.0000001272 -0.0000001755 
  0.0000000000  0.0000001699  0.0000001067 -0.9988325920  0.0483058288 
  0.0000000000 -0.0000000188 -0.0000001805  0.0483058288  0.9988325920 
 ***********************************
 ***********************************
 
 
 Major CI contributions to CI states
 
State    1  0.0000     CI coeff  CI percent
    Config       1   1.00000000  1.00000000
 Total coeff printed             1.00000000
  
State    2 10.7590     CI coeff  CI percent
    Config       2  -0.99746341  0.99493325
    Config       3   0.07118113  0.00506675
 Total coeff printed             1.00000000
  
State    3 11.8112     CI coeff  CI percent
    Config       2  -0.07118113  0.00506675
    Config       3  -0.99746341  0.99493325
 Total coeff printed             1.00000000
  
State    4 13.4370     CI coeff  CI percent
    Config       4  -0.99883259  0.99766655
    Config       5   0.04830583  0.00233345
 Total coeff printed             1.00000000
  
State    5 14.4877     CI coeff  CI percent
    Config       4   0.04830583  0.00233345
    Config       5   0.99883259  0.99766655
 Total coeff printed             1.00000000
  

 -------------------------------------------------------------------------------
 INDO C.I.=(4,2) AllVEC CHARGE=0 RELSCF=0.000001




     1SCF WAS SPECIFIED, SO BFGS WAS NOT USED                 
     SCF FIELD WAS ACHIEVED                                   


                              INDO CALCULATION
                                                       MOPAC2016 (Version: 20.173L)
                                                       Thu Jun  1 14:01:06 2023




          FINAL HEAT OF FORMATION =      -8335.25295 KCAL/MOL =  -34874.69834 KJ/MOL


          TOTAL ENERGY            =       -368.55251 EV
          ELECTRONIC ENERGY       =       -464.00663 EV  POINT GROUP:     C2v 
          CORE-CORE REPULSION     =         95.45412 EV
          COSMO AREA              =         42.69 SQUARE ANGSTROMS
          COSMO VOLUME            =         25.38 CUBIC ANGSTROMS

          IONIZATION POTENTIAL    =         12.797568 EV
          HOMO LUMO ENERGIES (EV) =        -12.798  5.897
          NO. OF FILLED LEVELS    =          4
          MOLECULAR WEIGHT        =         18.0152

          MOLECULAR DIMENSIONS (Angstroms)

            Atom       Atom       Distance
            H     3    H     2     1.56912
            H     2    O     1     0.58610
            H     2    O     1     0.00000


          SCF CALCULATIONS        =          1
 
          WALL-CLOCK TIME         =          0.016 SECONDS
          COMPUTATION TIME        =          0.010 SECONDS




   ATOM   CHEMICAL          X               Y               Z
  NUMBER   SYMBOL      (ANGSTROMS)     (ANGSTROMS)     (ANGSTROMS)
 
     1       O         -1.04733701  *   0.47386032  *   0.03594029  *
     2       H         -0.13104849  *   0.34140597  *  -0.24003520  *
     3       H         -1.32719095  *   1.35294977  *  -0.33044555  *

                             CARTESIAN COORDINATES

   1    O       -1.047337009     0.473860323     0.035940287
   2    H       -0.131048489     0.341405970    -0.240035201
   3    H       -1.327190950     1.352949770    -0.330445551


           Empirical Formula: H2 O  =     3 atoms



      MOLECULAR POINT GROUP   :   C2v 


                EIGENVECTORS  


   Root No.       1         2         3         4         5         6

                 1 a1      1 b2      2 a1      1 b1      3 a1      2 b2  

               -40.374   -19.713   -14.620   -12.798     5.897     7.778
  
  S   O    1    0.8370   -0.0098   -0.3892    0.0000   -0.3820   -0.0450
  Px  O    1    0.0996    0.5985    0.4745    0.3166   -0.2209   -0.5076
  Py  O    1    0.1025   -0.4951    0.5339    0.4490   -0.3499    0.3677
  Pz  O    1   -0.0928    0.0393   -0.4667    0.8356    0.2717   -0.0053
  S   H    2    0.3744    0.4404    0.2419   -0.0000    0.4913    0.6050
  S   H    3    0.3610   -0.4484    0.2490   -0.0000    0.6063   -0.4889


              NET ATOMIC CHARGES AND DIPOLE CONTRIBUTIONS

  ATOM NO.   TYPE          CHARGE      No. of ELECS.   s-Pop       p-Pop       
    1          O          -0.428003        6.4280     1.70406     4.72394
    2          H           0.214760        0.7852     0.78524
    3          H           0.213243        0.7868     0.78676
 DIPOLE           X         Y         Z       TOTAL
 POINT-CHG.     0.659     0.764    -0.660     1.205
 HYBRID         0.692     0.756    -0.668     1.223
 SUM            1.350     1.519    -1.328     2.428


          ATOMIC ORBITAL ELECTRON POPULATIONS

     Atom    s        px        py        pz   
    1  O   1.70406   1.38705   1.48463   1.85226
    2  H   0.78524
    3  H   0.78676

 **********************
 *                    *
 * JOB ENDED NORMALLY *
 *                    *
 **********************



 TOTAL JOB TIME:             0.03 SECONDS

 == MOPAC DONE ==


          MOPAC Job: "./h2oTraj/h2o_83.mop" ended normally on Jun  1, 2023, at 14:01.

rm: cannot remove ‘./h2oTraj/h2o_83.cim’: No such file or directory
rm: cannot remove ‘./h2oTraj/h2o_83.end’: No such file or directory
rm: cannot remove ‘./h2oTraj/h2o_83.log’: No such file or directory
rm: cannot remove ‘./h2oTraj/h2o_83.temp’: No such file or directory
rm: cannot remove ‘./h2oTraj/h2o_83.ple’: No such file or directory
rm: cannot remove ‘./h2oTraj/h2o_83.sts’: No such file or directory
