 *******************************************************************************
 ** Site#:    0         For non-commercial use only    Version 20.173L 64BITS **
 *******************************************************************************
 ** Cite this program as: MOPAC2016, Version: 20.173L, James J. P. Stewart,   **
 ** Stewart Computational Chemistry, web-site: HTTP://OpenMOPAC.net.          **
 *******************************************************************************
 **                                                                           **
 **                                MOPAC2016                                  **
 **                                                                           **
 *******************************************************************************

                              INDO CALCULATION RESULTS

 *******************************************************************************
 *  CALCULATION DONE:                                Thu Jun  1 14:01:06 2023  *
 *  INDO       - The INDO Hamiltonian to be used
 *
 *
 *
 *                 CHARGE ON SYSTEM = 0
 *
 *
 *
 *  C.I.=(N,M) - 2 DOUBLY FILLED LEVELS USED IN A C.I. INVOLVING 4 M.O.'S
 *  T=         - A TIME OF 172800.0 SECONDS REQUESTED
 *  DUMP=N     - RESTART FILE WRITTEN EVERY 7200.0 SECONDS REQUESTED
 *  RELSCF     - DEFAULT SCF CRITERION MULTIPLIED BY 0.0000
 *              (DEFAULT SCF CRITERION = 0.00010)
 *  ALLVEC     - PRINT ALL EIGENVECTORS
 **********
 *  WARNING: Specified print options may not behave as expected with INDO
 **********
 *******************************************************************************
INDO C.I.=(4,2) AllVEC CHARGE=0 RELSCF=0.000001


   ATOM   CHEMICAL          X               Y               Z
  NUMBER   SYMBOL      (ANGSTROMS)     (ANGSTROMS)     (ANGSTROMS)
 
     1       O         -1.04811627  *   0.47401533  *   0.03486227  *
     2       H         -0.16234676  *   0.33753169  *  -0.25579102  *
     3       H         -1.28352342  *   1.35436367  *  -0.29757834  *
 


          CARTESIAN COORDINATES 

    NO.       ATOM           X           Y           Z

     1         O         -1.0481      0.4740      0.0349
     2         H         -0.1623      0.3375     -0.2558
     3         H         -1.2835      1.3544     -0.2976

           Empirical Formula: H2 O  =     3 atoms



      MOLECULAR POINT GROUP   :   C2v 


      RHF CALCULATION, NO. OF DOUBLY OCCUPIED LEVELS = 4

 WARNING: INDO only performs single-point calculations
  SCF CRITERION =    0.1000E-09

 Summary of symmetry occupancy in each shell:

 SHELL     
    1    4
    v    2
 TOTAL   6




    ROOT NO.    1           2           3           4           5           6

           -40.96361   -19.76160   -14.70962   -12.81997     6.30427     8.03402
  
  
  S  O   1   0.83053    -0.00956    -0.39717     0.00000    -0.38691    -0.05183
 PX  O   1   0.10487     0.58431     0.48636     0.34079    -0.22221    -0.49551
 PY  O   1   0.10534    -0.51808     0.53184     0.41051    -0.35740     0.37600
 PZ  O   1  -0.09338     0.01603    -0.45411     0.84578     0.26300     0.01715
  
  S  H   2   0.38062     0.43696     0.23808    -0.00000     0.47952     0.61447
  
  S  H   3   0.36679    -0.44598     0.24484    -0.00000     0.61162    -0.48222


 Reference determinate nber   1 is ALPHA 1 -   4
 SINGLE excitations FROM orbs   3 to   4 INTO orbs   5 to   6
 

 CI excitations=    5:        =  5
 The lowest    5 spin-adapted configurations of multiplicity=  1
     sym   eV   cm**-1 -dets- dipole oscilator X FRAG ....Excitations named from first reference determinate
                       tot  #  Debye  strength
 
   1      0.000      0.  1  1  2.4437 0.000000 0  0 (     )->       )
   2     11.154  89966.  1  1  0.6639 0.032934 1  1 (   4 )->   5   )
   3     12.057  97250.  1  1  0.9442 0.000639 1  1 (   4 )->   6   )
   4     13.838 111609.  1  1  0.8942 0.032743 1  1 (   3 )->   5   )
   5     14.786 119258.  1  1  0.6194 0.206529 1  1 (   3 )->   6   )

 Depression of ground-state after CI=          0. cm**-1 Energy=  -466.3328610 eV
 Dipole moment=  1.393880  1.526897 -1.302733 tot=  2.443651 Debyes


  CI trans.  energy frequency wavelength oscillator ---------polarization---------    dipole   ------components----- 
 st.  symm.    eV      cm-1       nm      strength       x          y         z       moment     x       y       z 

   2     11.1462843    89901.    111.23  0.031804   0.340785   0.410514   0.845780  1.120256   0.913  -0.646  -0.054
   3     12.0655084    97315.    102.76  0.001837   0.340785   0.410514   0.845780  1.278217  -0.384   1.150  -0.403
   4     13.8343578   111582.     89.62  0.036350  -0.158753  -0.861585   0.482150  1.118476   0.337  -1.006   0.353
   5     14.7894510   119285.     83.83  0.202712   0.773668  -0.633577  -0.004213  0.915334  -0.708   0.581   0.003
 
 Polarizability (au  ) xx=    1.31 xy=   -0.87 yy=    1.24 xz=    0.13 yz=    0.04 zz=    0.52
 Polarizability (A**3) xx=    0.19 xy=   -0.13 yy=    0.18 xz=    0.02 yz=    0.01 zz=    0.08
 ***********************************
 ***********************************
 CI Matrix
  1.0000000000  0.0000000000  0.0000000000  0.0000000000  0.0000000000 
  0.0000000000 -0.9956006617  0.0936980385 -0.0000000000  0.0000000000 
  0.0000000000 -0.0936980385 -0.9956006617 -0.0000000000 -0.0000000000 
  0.0000000000  0.0000000000  0.0000000000 -0.9982225164  0.0595970447 
  0.0000000000 -0.0000000000 -0.0000000000  0.0595970447  0.9982225164 
 ***********************************
 ***********************************
 
 
 Major CI contributions to CI states
 
State    1  0.0000     CI coeff  CI percent
    Config       1   1.00000000  1.00000000
 Total coeff printed             1.00000000
  
State    2 11.1463     CI coeff  CI percent
    Config       2  -0.99560066  0.99122068
    Config       3   0.09369804  0.00877932
 Total coeff printed             1.00000000
  
State    3 12.0655     CI coeff  CI percent
    Config       2  -0.09369804  0.00877932
    Config       3  -0.99560066  0.99122068
 Total coeff printed             1.00000000
  
State    4 13.8344     CI coeff  CI percent
    Config       4  -0.99822252  0.99644819
    Config       5   0.05959704  0.00355181
 Total coeff printed             1.00000000
  
State    5 14.7895     CI coeff  CI percent
    Config       4   0.05959704  0.00355181
    Config       5   0.99822252  0.99644819
 Total coeff printed             1.00000000
  

 -------------------------------------------------------------------------------
 INDO C.I.=(4,2) AllVEC CHARGE=0 RELSCF=0.000001




     1SCF WAS SPECIFIED, SO BFGS WAS NOT USED                 
     SCF FIELD WAS ACHIEVED                                   


                              INDO CALCULATION
                                                       MOPAC2016 (Version: 20.173L)
                                                       Thu Jun  1 14:01:06 2023




          FINAL HEAT OF FORMATION =      -8365.31820 KCAL/MOL =  -35000.49133 KJ/MOL


          TOTAL ENERGY            =       -369.85627 EV
          ELECTRONIC ENERGY       =       -466.33286 EV  POINT GROUP:     C2v 
          CORE-CORE REPULSION     =         96.47659 EV
          COSMO AREA              =         42.35 SQUARE ANGSTROMS
          COSMO VOLUME            =         25.11 CUBIC ANGSTROMS

          IONIZATION POTENTIAL    =         12.819971 EV
          HOMO LUMO ENERGIES (EV) =        -12.820  6.304
          NO. OF FILLED LEVELS    =          4
          MOLECULAR WEIGHT        =         18.0152

          MOLECULAR DIMENSIONS (Angstroms)

            Atom       Atom       Distance
            H     3    H     2     1.51418
            O     1    H     3     0.58381
            H     2    H     3     0.00000


          SCF CALCULATIONS        =          1
 
          WALL-CLOCK TIME         =          0.035 SECONDS
          COMPUTATION TIME        =          0.011 SECONDS




   ATOM   CHEMICAL          X               Y               Z
  NUMBER   SYMBOL      (ANGSTROMS)     (ANGSTROMS)     (ANGSTROMS)
 
     1       O         -1.04811627  *   0.47401533  *   0.03486227  *
     2       H         -0.16234676  *   0.33753169  *  -0.25579102  *
     3       H         -1.28352342  *   1.35436367  *  -0.29757834  *

                             CARTESIAN COORDINATES

   1    O       -1.048116273     0.474015327     0.034862270
   2    H       -0.162346758     0.337531686    -0.255791025
   3    H       -1.283523418     1.354363671    -0.297578343


           Empirical Formula: H2 O  =     3 atoms



      MOLECULAR POINT GROUP   :   C2v 


                EIGENVECTORS  


   Root No.       1         2         3         4         5         6

                 1 a1      1 b2      2 a1      1 b1      3 a1      2 b2  

               -40.964   -19.762   -14.710   -12.820     6.304     8.034
  
  S   O    1    0.8305   -0.0096   -0.3972    0.0000   -0.3869   -0.0518
  Px  O    1    0.1049    0.5843    0.4864    0.3408   -0.2222   -0.4955
  Py  O    1    0.1053   -0.5181    0.5318    0.4105   -0.3574    0.3760
  Pz  O    1   -0.0934    0.0160   -0.4541    0.8458    0.2630    0.0172
  S   H    2    0.3806    0.4370    0.2381   -0.0000    0.4795    0.6145
  S   H    3    0.3668   -0.4460    0.2448   -0.0000    0.6116   -0.4822


              NET ATOMIC CHARGES AND DIPOLE CONTRIBUTIONS

  ATOM NO.   TYPE          CHARGE      No. of ELECS.   s-Pop       p-Pop       
    1          O          -0.428265        6.4283     1.69524     4.73302
    2          H           0.215028        0.7850     0.78497
    3          H           0.213237        0.7868     0.78676
 DIPOLE           X         Y         Z       TOTAL
 POINT-CHG.     0.674     0.761    -0.641     1.201
 HYBRID         0.720     0.766    -0.662     1.243
 SUM            1.394     1.527    -1.303     2.444


          ATOMIC ORBITAL ELECTRON POPULATIONS

     Atom    s        px        py        pz   
    1  O   1.69524   1.41019   1.46177   1.86106
    2  H   0.78497
    3  H   0.78676

 **********************
 *                    *
 * JOB ENDED NORMALLY *
 *                    *
 **********************



 TOTAL JOB TIME:             0.07 SECONDS

 == MOPAC DONE ==


          MOPAC Job: "./h2oTraj/h2o_92.mop" ended normally on Jun  1, 2023, at 14:01.

rm: cannot remove ‘./h2oTraj/h2o_92.cim’: No such file or directory
rm: cannot remove ‘./h2oTraj/h2o_92.end’: No such file or directory
rm: cannot remove ‘./h2oTraj/h2o_92.log’: No such file or directory
rm: cannot remove ‘./h2oTraj/h2o_92.temp’: No such file or directory
rm: cannot remove ‘./h2oTraj/h2o_92.ple’: No such file or directory
rm: cannot remove ‘./h2oTraj/h2o_92.sts’: No such file or directory
