 *******************************************************************************
 ** Site#:    0         For non-commercial use only    Version 20.173L 64BITS **
 *******************************************************************************
 ** Cite this program as: MOPAC2016, Version: 20.173L, James J. P. Stewart,   **
 ** Stewart Computational Chemistry, web-site: HTTP://OpenMOPAC.net.          **
 *******************************************************************************
 **                                                                           **
 **                                MOPAC2016                                  **
 **                                                                           **
 *******************************************************************************

                              INDO CALCULATION RESULTS

 *******************************************************************************
 *  CALCULATION DONE:                                Thu Jun  1 14:01:06 2023  *
 *  INDO       - The INDO Hamiltonian to be used
 *
 *
 *
 *                 CHARGE ON SYSTEM = 0
 *
 *
 *
 *  C.I.=(N,M) - 2 DOUBLY FILLED LEVELS USED IN A C.I. INVOLVING 4 M.O.'S
 *  T=         - A TIME OF 172800.0 SECONDS REQUESTED
 *  DUMP=N     - RESTART FILE WRITTEN EVERY 7200.0 SECONDS REQUESTED
 *  RELSCF     - DEFAULT SCF CRITERION MULTIPLIED BY 0.0000
 *              (DEFAULT SCF CRITERION = 0.00010)
 *  ALLVEC     - PRINT ALL EIGENVECTORS
 **********
 *  WARNING: Specified print options may not behave as expected with INDO
 **********
 *******************************************************************************
INDO C.I.=(4,2) AllVEC CHARGE=0 RELSCF=0.000001


   ATOM   CHEMICAL          X               Y               Z
  NUMBER   SYMBOL      (ANGSTROMS)     (ANGSTROMS)     (ANGSTROMS)
 
     1       O         -1.04701114  *   0.47097585  *   0.03605967  *
     2       H         -0.16854821  *   0.35761356  *  -0.26258280  *
     3       H         -1.29486368  *   1.38252744  *  -0.30979290  *
 


          CARTESIAN COORDINATES 

    NO.       ATOM           X           Y           Z

     1         O         -1.0470      0.4710      0.0361
     2         H         -0.1685      0.3576     -0.2626
     3         H         -1.2949      1.3825     -0.3098

           Empirical Formula: H2 O  =     3 atoms



      MOLECULAR POINT GROUP   :   C2v 


      RHF CALCULATION, NO. OF DOUBLY OCCUPIED LEVELS = 4

 WARNING: INDO only performs single-point calculations
  SCF CRITERION =    0.1000E-09

 Summary of symmetry occupancy in each shell:

 SHELL     
    1    4
    v    2
 TOTAL   6




    ROOT NO.    1           2           3           4           5           6

           -40.70234   -19.54347   -14.77689   -12.82197     6.00714     7.90614
  
  
  S  O   1   0.83221    -0.02528    -0.39967    -0.00000    -0.36320    -0.12305
 PX  O   1   0.11064     0.59405     0.47266     0.34046    -0.12903    -0.52811
 PY  O   1   0.10096    -0.50830     0.53725     0.41305    -0.42636     0.30069
 PZ  O   1  -0.09397     0.00912    -0.45323     0.84468     0.26050     0.06582
  
  S  H   2   0.38885     0.42945     0.23821     0.00000     0.36574     0.68838
  
  S  H   3   0.35350    -0.45121     0.25702     0.00000     0.68413    -0.37061


 Reference determinate nber   1 is ALPHA 1 -   4
 SINGLE excitations FROM orbs   3 to   4 INTO orbs   5 to   6
 

 CI excitations=    5:        =  5
 The lowest    5 spin-adapted configurations of multiplicity=  1
     sym   eV   cm**-1 -dets- dipole oscilator X FRAG ....Excitations named from first reference determinate
                       tot  #  Debye  strength
 
   1      0.000      0.  1  1  2.4695 0.000000 0  0 (     )->       )
   2     10.810  87191.  1  1  1.5230 0.028126 1  1 (   4 )->   5   )
   3     12.001  96795.  1  1  1.5475 0.003584 1  1 (   4 )->   6   )
   4     13.663 110197.  1  1  1.5882 0.058984 1  1 (   3 )->   5   )
   5     14.798 119350.  1  1  1.4378 0.197320 1  1 (   3 )->   6   )

 Depression of ground-state after CI=          0. cm**-1 Energy=  -464.9842053 eV
 Dipole moment=  1.378734  1.565739 -1.321372 tot=  2.469508 Debyes


  CI trans.  energy frequency wavelength oscillator ---------polarization---------    dipole   ------components----- 
 st.  symm.    eV      cm-1       nm      strength       x          y         z       moment     x       y       z 

   2     10.7810495    86955.    115.00  0.024592   0.340459   0.413050   0.844676  2.110508   1.690  -1.262  -0.064
   3     12.0302859    97031.    103.06  0.007451   0.340457   0.413051   0.844676  2.073278  -1.137   1.694  -0.370
   4     13.6475103   110075.     90.85  0.074109   0.183508  -0.910258   0.371155  2.003702   1.133  -1.618   0.335
   5     14.8127207   119473.     83.70  0.181035   0.820029  -0.569972  -0.051805  1.890966  -1.476   1.182   0.017
 
 Polarizability (au  ) xx=    1.33 xy=   -0.92 yy=    1.43 xz=    0.15 yz=   -0.04 zz=    0.54
 Polarizability (A**3) xx=    0.20 xy=   -0.14 yy=    0.21 xz=    0.02 yz=   -0.01 zz=    0.08
 ***********************************
 ***********************************
 CI Matrix
  1.0000000000  0.0000000000  0.0000000000  0.0000000000  0.0000000000 
  0.0000000000 -0.9882097178  0.1531063477  0.0000001344 -0.0000000221 
  0.0000000000 -0.1531063477 -0.9882097178  0.0000001245  0.0000001730 
  0.0000000000 -0.0000001503 -0.0000000819 -0.9934584162  0.1141944625 
  0.0000000000  0.0000000220  0.0000001849  0.1141944625  0.9934584162 
 ***********************************
 ***********************************
 
 
 Major CI contributions to CI states
 
State    1  0.0000     CI coeff  CI percent
    Config       1   1.00000000  1.00000000
 Total coeff printed             1.00000000
  
State    2 10.7810     CI coeff  CI percent
    Config       2  -0.98820972  0.97655845
    Config       3   0.15310635  0.02344155
 Total coeff printed             1.00000000
  
State    3 12.0303     CI coeff  CI percent
    Config       2  -0.15310635  0.02344155
    Config       3  -0.98820972  0.97655845
 Total coeff printed             1.00000000
  
State    4 13.6475     CI coeff  CI percent
    Config       4  -0.99345842  0.98695962
    Config       5   0.11419446  0.01304038
 Total coeff printed             1.00000000
  
State    5 14.8127     CI coeff  CI percent
    Config       4   0.11419446  0.01304038
    Config       5   0.99345842  0.98695962
 Total coeff printed             1.00000000
  

 -------------------------------------------------------------------------------
 INDO C.I.=(4,2) AllVEC CHARGE=0 RELSCF=0.000001




     1SCF WAS SPECIFIED, SO BFGS WAS NOT USED                 
     SCF FIELD WAS ACHIEVED                                   


                              INDO CALCULATION
                                                       MOPAC2016 (Version: 20.173L)
                                                       Thu Jun  1 14:01:06 2023




          FINAL HEAT OF FORMATION =      -8347.13920 KCAL/MOL =  -34924.43041 KJ/MOL


          TOTAL ENERGY            =       -369.06795 EV
          ELECTRONIC ENERGY       =       -464.98421 EV  POINT GROUP:     C2v 
          CORE-CORE REPULSION     =         95.91625 EV
          COSMO AREA              =         42.63 SQUARE ANGSTROMS
          COSMO VOLUME            =         25.31 CUBIC ANGSTROMS

          IONIZATION POTENTIAL    =         12.821966 EV
          HOMO LUMO ENERGIES (EV) =        -12.822  6.007
          NO. OF FILLED LEVELS    =          4
          MOLECULAR WEIGHT        =         18.0152

          MOLECULAR DIMENSIONS (Angstroms)

            Atom       Atom       Distance
            H     3    H     2     1.52357
            H     2    O     1     0.60040
            H     2    O     1     0.00000


          SCF CALCULATIONS        =          1
 
          WALL-CLOCK TIME         =          0.023 SECONDS
          COMPUTATION TIME        =          0.010 SECONDS




   ATOM   CHEMICAL          X               Y               Z
  NUMBER   SYMBOL      (ANGSTROMS)     (ANGSTROMS)     (ANGSTROMS)
 
     1       O         -1.04701114  *   0.47097585  *   0.03605967  *
     2       H         -0.16854821  *   0.35761356  *  -0.26258280  *
     3       H         -1.29486368  *   1.38252744  *  -0.30979290  *

                             CARTESIAN COORDINATES

   1    O       -1.047011145     0.470975852     0.036059669
   2    H       -0.168548207     0.357613558    -0.262582802
   3    H       -1.294863676     1.382527442    -0.309792896


           Empirical Formula: H2 O  =     3 atoms



      MOLECULAR POINT GROUP   :   C2v 


                EIGENVECTORS  


   Root No.       1         2         3         4         5         6

                 1 a1      1 b2      2 a1      1 b1      5 ????    6 ????

               -40.702   -19.543   -14.777   -12.822     6.007     7.906
  
  S   O    1    0.8322   -0.0253   -0.3997   -0.0000   -0.3632   -0.1231
  Px  O    1    0.1106    0.5940    0.4727    0.3405   -0.1290   -0.5281
  Py  O    1    0.1010   -0.5083    0.5372    0.4131   -0.4264    0.3007
  Pz  O    1   -0.0940    0.0091   -0.4532    0.8447    0.2605    0.0658
  S   H    2    0.3888    0.4294    0.2382    0.0000    0.3657    0.6884
  S   H    3    0.3535   -0.4512    0.2570    0.0000    0.6841   -0.3706


              NET ATOMIC CHARGES AND DIPOLE CONTRIBUTIONS

  ATOM NO.   TYPE          CHARGE      No. of ELECS.   s-Pop       p-Pop       
    1          O          -0.426026        6.4260     1.70589     4.72013
    2          H           0.215256        0.7847     0.78474
    3          H           0.210770        0.7892     0.78923
 DIPOLE           X         Y         Z       TOTAL
 POINT-CHG.     0.657     0.806    -0.659     1.231
 HYBRID         0.721     0.760    -0.663     1.240
 SUM            1.379     1.566    -1.321     2.470


          ATOMIC ORBITAL ELECTRON POPULATIONS

     Atom    s        px        py        pz   
    1  O   1.70589   1.40891   1.45561   1.85561
    2  H   0.78474
    3  H   0.78923

 **********************
 *                    *
 * JOB ENDED NORMALLY *
 *                    *
 **********************



 TOTAL JOB TIME:             0.04 SECONDS

 == MOPAC DONE ==


          MOPAC Job: "./h2oTraj/h2o_91.mop" ended normally on Jun  1, 2023, at 14:01.

rm: cannot remove ‘./h2oTraj/h2o_91.cim’: No such file or directory
rm: cannot remove ‘./h2oTraj/h2o_91.end’: No such file or directory
rm: cannot remove ‘./h2oTraj/h2o_91.log’: No such file or directory
rm: cannot remove ‘./h2oTraj/h2o_91.temp’: No such file or directory
rm: cannot remove ‘./h2oTraj/h2o_91.ple’: No such file or directory
rm: cannot remove ‘./h2oTraj/h2o_91.sts’: No such file or directory
