 *******************************************************************************
 ** Site#:    0         For non-commercial use only    Version 20.173L 64BITS **
 *******************************************************************************
 ** Cite this program as: MOPAC2016, Version: 20.173L, James J. P. Stewart,   **
 ** Stewart Computational Chemistry, web-site: HTTP://OpenMOPAC.net.          **
 *******************************************************************************
 **                                                                           **
 **                                MOPAC2016                                  **
 **                                                                           **
 *******************************************************************************

                              INDO CALCULATION RESULTS

 *******************************************************************************
 *  CALCULATION DONE:                                Wed Feb 15 11:29:12 2023  *
 *  INDO       - The INDO Hamiltonian to be used
 *
 *
 *
 *                 CHARGE ON SYSTEM = 0
 *
 *
 *
 *  C.I.=(N,M) - 3 DOUBLY FILLED LEVELS USED IN A C.I. INVOLVING 6 M.O.'S
 *  T=         - A TIME OF 172800.0 SECONDS REQUESTED
 *  DUMP=N     - RESTART FILE WRITTEN EVERY 7200.0 SECONDS REQUESTED
 *  RELSCF     - DEFAULT SCF CRITERION MULTIPLIED BY 0.0000
 *              (DEFAULT SCF CRITERION = 0.00010)
 *  ALLVEC     - PRINT ALL EIGENVECTORS
 **********
 *  WARNING: Specified print options may not behave as expected with INDO
 **********
 *******************************************************************************
INDO C.I.=(6,3) AllVEC CHARGE=0 RELSCF=0.000001


   ATOM   CHEMICAL          X               Y               Z
  NUMBER   SYMBOL      (ANGSTROMS)     (ANGSTROMS)     (ANGSTROMS)
 
     1       C         18.44743045  *  19.53120643  *  22.31009252  *
     2       C         19.88554938  *  19.45605918  *  22.32259667  *
     3       C         20.66738175  *  20.65339981  *  22.39734093  *
     4       C         19.96137640  *  21.97990548  *  22.39337269  *
     5       C         18.50667662  *  21.96537500  *  22.41795261  *
     6       C         17.77386492  *  20.80596800  *  22.40992579  *
     7       C         22.06859728  *  20.59805839  *  22.44926030  *
     8       C         20.70342077  *  23.16203535  *  22.45196101  *
     9       C         22.17444925  *  23.11721402  *  22.53215320  *
    10       C         22.87622364  *  21.80519407  *  22.54932086  *
    11       C         24.32478830  *  21.82765575  *  22.60941136  *
    12       H         24.82854175  *  20.82568571  *  22.52317187  *
    13       C         22.95034696  *  24.34936202  *  22.58828090  *
    14       H         22.58657325  *  19.61625712  *  22.39855696  *
    15       H         17.80618268  *  18.64731833  *  22.14748791  *
    16       H         20.35462491  *  18.45288049  *  22.26864076  *
    17       H         18.01833355  *  22.92401328  *  22.57540081  *
    18       H         16.64221474  *  20.75296148  *  22.39480859  *
    19       H         20.15278053  *  24.10297940  *  22.40345586  *
    20       H         22.44392371  *  25.28855862  *  22.66331383  *
    21       C         26.48386809  *  23.07104209  *  22.56139209  *
    22       C         27.16654335  *  24.28685674  *  22.48780877  *
    23       C         26.51028676  *  25.51667608  *  22.57413671  *
    24       C         25.14651260  *  25.55622084  *  22.63698725  *
    25       H         27.02083526  *  22.10232479  *  22.41532362  *
    26       H         28.25857916  *  24.13894324  *  22.35539148  *
    27       H         27.12823876  *  26.44260401  *  22.45997276  *
    28       H         24.49507149  *  26.41240147  *  22.61371010  *
    29       C         25.03089034  *  23.03733369  *  22.67061543  *
    30       C         24.34397576  *  24.30505311  *  22.70296640  *
 


          CARTESIAN COORDINATES 

    NO.       ATOM           X           Y           Z

     1         C         18.4474     19.5312     22.3101
     2         C         19.8855     19.4561     22.3226
     3         C         20.6674     20.6534     22.3973
     4         C         19.9614     21.9799     22.3934
     5         C         18.5067     21.9654     22.4180
     6         C         17.7739     20.8060     22.4099
     7         C         22.0686     20.5981     22.4493
     8         C         20.7034     23.1620     22.4520
     9         C         22.1744     23.1172     22.5322
    10         C         22.8762     21.8052     22.5493
    11         C         24.3248     21.8277     22.6094
    12         H         24.8285     20.8257     22.5232
    13         C         22.9503     24.3494     22.5883
    14         H         22.5866     19.6163     22.3986
    15         H         17.8062     18.6473     22.1475
    16         H         20.3546     18.4529     22.2686
    17         H         18.0183     22.9240     22.5754
    18         H         16.6422     20.7530     22.3948
    19         H         20.1528     24.1030     22.4035
    20         H         22.4439     25.2886     22.6633
    21         C         26.4839     23.0710     22.5614
    22         C         27.1665     24.2869     22.4878
    23         C         26.5103     25.5167     22.5741
    24         C         25.1465     25.5562     22.6370
    25         H         27.0208     22.1023     22.4153
    26         H         28.2586     24.1389     22.3554
    27         H         27.1282     26.4426     22.4600
    28         H         24.4951     26.4124     22.6137
    29         C         25.0309     23.0373     22.6706
    30         C         24.3440     24.3051     22.7030

           Empirical Formula: C18 H12  =    30 atoms



      MOLECULAR POINT GROUP   :   C1  


      RHF CALCULATION, NO. OF DOUBLY OCCUPIED LEVELS = 42

 WARNING: INDO only performs single-point calculations
  SCF CRITERION =    0.1000E-09

 Summary of symmetry occupancy in each shell:

 SHELL     
    1   42
    v   42
 TOTAL  84




    ROOT NO.    1           2           3           4           5           6

           -44.39147   -43.00230   -40.17044   -36.91458   -35.54870   -34.23260
  
  
  S  C   1   0.09091     0.22431    -0.24505     0.26047    -0.08366     0.11583
 PX  C   1   0.02369     0.05176    -0.03711     0.00340    -0.04774     0.07846
 PY  C   1   0.03375     0.08066    -0.08052     0.07381     0.01702    -0.03781
 PZ  C   1   0.00192     0.00448    -0.00415     0.00319     0.00092    -0.00214
  
  S  C   2   0.11668     0.25272    -0.19510     0.09955    -0.20052     0.28700
 PX  C   2  -0.00044    -0.02081     0.06491    -0.11436    -0.03820     0.04356
 PY  C   2   0.04800     0.09746    -0.05885     0.00470    -0.02277     0.02546
 PZ  C   2   0.00245     0.00468    -0.00202    -0.00147    -0.00218     0.00231
  
  S  C   3   0.20838     0.34379    -0.06553    -0.18136    -0.18086     0.22323
 PX  C   3   0.00388    -0.04732     0.13013    -0.14749    -0.06468     0.04873
 PY  C   3   0.03957     0.03685     0.05286    -0.08939     0.10685    -0.13804
 PZ  C   3   0.00126    -0.00050     0.00566    -0.00656     0.00178    -0.00412
  
  S  C   4   0.20908     0.34601    -0.07255    -0.15601     0.19453    -0.21164
 PX  C   4   0.03448     0.00231     0.12037    -0.16724    -0.02946     0.07345
 PY  C   4  -0.01885    -0.05959     0.07544    -0.05888     0.12624    -0.12723
 PZ  C   4   0.00386     0.00472     0.00239    -0.00594     0.00648    -0.00702
  
  S  C   5   0.12165     0.26708    -0.21830     0.14816     0.17861    -0.27012
 PX  C   5   0.03740     0.06480    -0.01007    -0.05858     0.04173    -0.03511
 PY  C   5  -0.02747    -0.07318     0.08967    -0.10119     0.03820    -0.03409
 PZ  C   5   0.00030     0.00008     0.00112    -0.00193     0.00420    -0.00599
  
  S  C   6   0.09393     0.23228    -0.25605     0.28108     0.04397    -0.10172
 PX  C   6   0.04212     0.09797    -0.08986     0.06615     0.00442    -0.00913
 PY  C   6   0.00319     0.00419     0.00542    -0.02173     0.05647    -0.09049
 PZ  C   6  -0.00155    -0.00415     0.00535    -0.00680     0.00231    -0.00309
  
  S  C   7   0.18551     0.19288     0.14260    -0.25856    -0.28216     0.19221
 PX  C   7  -0.02267    -0.07495     0.04288     0.07306    -0.00581    -0.08126
 PY  C   7   0.06129     0.03779     0.08135    -0.06844     0.00780    -0.04709
 PZ  C   7   0.00124    -0.00153     0.00470     0.00066     0.00015    -0.00541
  
  S  C   8   0.18657     0.19380     0.13420    -0.22740     0.31442    -0.20417
 PX  C   8   0.03649    -0.01382     0.09094    -0.01595    -0.00440     0.08004
 PY  C   8  -0.05305    -0.08423    -0.01019     0.09911     0.00064     0.04178
 PZ  C   8   0.00112    -0.00149     0.00347     0.00214     0.00053     0.00364
  
  S  C   9   0.28662     0.08266     0.31499    -0.02527     0.19922    -0.00757
 PX  C   9   0.04418    -0.07431     0.04584     0.17859    -0.07597     0.06034
 PY  C   9  -0.03077    -0.05568    -0.03477     0.10708     0.12115     0.03738
 PZ  C   9   0.00128    -0.00490     0.00160     0.01269    -0.00066     0.00430
  
  S  C  10   0.28292     0.08422     0.31768    -0.04366    -0.20718    -0.01025
 PX  C  10  -0.00446    -0.08556    -0.00438     0.18236    -0.07131    -0.05913
 PY  C  10   0.05622    -0.03079     0.05682     0.10021     0.10646    -0.03471
 PZ  C  10  -0.00183    -0.00564    -0.00170     0.01290     0.00255    -0.00324
  
  S  C  11   0.24477    -0.06935     0.19457     0.19738    -0.30267    -0.19102
 PX  C  11  -0.03333    -0.03415    -0.09207     0.00217     0.00192    -0.06997
 PY  C  11   0.08526    -0.05118     0.03306     0.10126    -0.00148    -0.04245
 PZ  C  11  -0.00243    -0.00100    -0.00289     0.00280     0.00527     0.00049
  
  S  H  12   0.07089    -0.01726     0.05595     0.04598    -0.14639    -0.08710
  
  S  C  13   0.25315    -0.07523     0.19064     0.21945     0.29405     0.20164
 PX  C  13   0.05596    -0.06341    -0.02137     0.08535    -0.01099     0.07858
 PY  C  13  -0.07036    -0.00316    -0.09395    -0.05080     0.01377     0.05102
 PZ  C  13   0.00339    -0.00307     0.00127     0.00831     0.00513     0.00887
  
  S  H  14   0.05642     0.05767     0.04128    -0.07374    -0.14383     0.09506
  
  S  H  15   0.02289     0.05938    -0.07334     0.09319    -0.03293     0.04809
  
  S  H  16   0.03413     0.07206    -0.05175     0.01979    -0.09592     0.13685
  
  S  H  17   0.03863     0.08205    -0.06205     0.03798     0.09829    -0.14190
  
  S  H  18   0.02290     0.05966    -0.07465     0.09834     0.01698    -0.04102
  
  S  H  19   0.05856     0.06099     0.03649    -0.06042     0.15826    -0.10331
  
  S  H  20   0.08069    -0.02331     0.05610     0.06315     0.15903     0.10558
  
  S  C  21   0.21672    -0.20180    -0.19112    -0.09437    -0.18979    -0.28013
 PX  C  21  -0.06430     0.04498    -0.00249    -0.06074     0.04018     0.03161
 PY  C  21   0.05970    -0.06711    -0.09701    -0.08830     0.02662     0.01938
 PZ  C  21   0.00067    -0.00034     0.00123     0.00387     0.00145     0.00354
  
  S  C  22   0.18915    -0.20061    -0.26711    -0.24145    -0.06383    -0.12453
 PX  C  22  -0.08193     0.08122     0.08839     0.05117     0.00370     0.00347
 PY  C  22  -0.00240    -0.00112    -0.01386    -0.02921     0.05876     0.09537
 PZ  C  22   0.00684    -0.00711    -0.00858    -0.00579    -0.00008    -0.00018
  
  S  C  23   0.18869    -0.20038    -0.26780    -0.24089     0.07167     0.10526
 PX  C  23  -0.04713     0.04399     0.03807     0.00339    -0.05099    -0.08385
 PY  C  23  -0.06885     0.07036     0.08399     0.06165     0.02374     0.04544
 PZ  C  23  -0.00084     0.00113     0.00256     0.00436     0.00145     0.00283
  
  S  C  24   0.22098    -0.20657    -0.19847    -0.09310     0.19283     0.27906
 PX  C  24   0.01556    -0.03249    -0.08412    -0.11203    -0.04443    -0.04986
 PY  C  24  -0.08406     0.07279     0.05139    -0.00104    -0.01260    -0.01201
 PZ  C  24  -0.00272     0.00276     0.00377     0.00434    -0.00013    -0.00030
  
  S  H  25   0.06196    -0.05573    -0.04820    -0.02038    -0.09518    -0.13655
  
  S  H  26   0.04919    -0.05467    -0.08156    -0.08697    -0.03228    -0.06411
  
  S  H  27   0.04745    -0.05307    -0.08042    -0.08659     0.02931     0.04521
  
  S  H  28   0.07103    -0.06219    -0.04916    -0.00956     0.10914     0.15260
  
  S  C  29   0.33769    -0.22235    -0.00076     0.18137    -0.19477    -0.20761
 PX  C  29  -0.03743    -0.02359    -0.14001    -0.14142    -0.03754    -0.08180
 PY  C  29   0.05019    -0.06065    -0.08223    -0.04507     0.11529     0.11358
 PZ  C  29  -0.01018     0.00679     0.00126    -0.00226     0.00957     0.01104
  
  S  C  30   0.34176    -0.22635    -0.00534     0.18868     0.16801     0.20749
 PX  C  30   0.01894    -0.06148    -0.14426    -0.12198    -0.07939    -0.06630
 PY  C  30  -0.05555     0.01030    -0.07603    -0.09179     0.10992     0.13855
 PZ  C  30  -0.01527     0.00977    -0.00021    -0.00734    -0.00682    -0.00781




    ROOT NO.    7           8           9          10          11          12

           -31.55763   -31.30489   -28.73344   -28.34072   -26.83445   -25.94673
  
  
  S  C   1   0.03998     0.30416    -0.17809     0.27562     0.02522     0.19371
 PX  C   1  -0.12906    -0.00812    -0.12570    -0.15801     0.03573     0.06808
 PY  C   1   0.07003    -0.01546     0.09708    -0.00892    -0.08132    -0.07920
 PZ  C   1   0.00294    -0.00355     0.00760    -0.00551    -0.00554    -0.00876
  
  S  C   2  -0.24194     0.12762    -0.21220    -0.12327     0.12780     0.01095
 PX  C   2  -0.06198    -0.12121     0.12106    -0.11780     0.02840    -0.20700
 PY  C   2  -0.03881    -0.06121     0.04909    -0.09168    -0.10208    -0.05524
 PZ  C   2  -0.00228    -0.00516     0.00622    -0.00663    -0.00424    -0.00840
  
  S  C   3  -0.20870    -0.13315     0.07591    -0.12474    -0.12138    -0.13653
 PX  C   3   0.06893    -0.01759     0.15976     0.13514     0.05682    -0.11505
 PY  C   3   0.06641    -0.05307     0.00222     0.10366    -0.16843     0.15012
 PZ  C   3   0.00752    -0.00230     0.00765     0.00830    -0.00316     0.00128
  
  S  C   4  -0.10242    -0.22591    -0.12045    -0.08892    -0.07392     0.20686
 PX  C   4  -0.06997     0.08002    -0.04281     0.18194    -0.10457    -0.01962
 PY  C   4   0.01444     0.01571    -0.09339     0.09314     0.18026     0.04382
 PZ  C   4   0.00099    -0.00316    -0.00051     0.00249     0.00095     0.00182
  
  S  C   5   0.17527    -0.20531     0.17536    -0.18132     0.08443    -0.08008
 PX  C   5  -0.11106    -0.08809    -0.14974    -0.10141    -0.01379     0.20981
 PY  C   5  -0.05828    -0.05901    -0.07074    -0.03496     0.11359     0.06065
 PZ  C   5   0.00300    -0.00607     0.00508    -0.00449     0.00721    -0.00587
  
  S  C   6   0.28149     0.10992     0.23024     0.20603    -0.04277    -0.19469
 PX  C   6  -0.01113    -0.01844    -0.03319    -0.08700    -0.03283     0.07244
 PY  C   6   0.03980    -0.14628     0.12819    -0.17242     0.03213    -0.13504
 PZ  C   6  -0.00282    -0.01009     0.00375    -0.01291     0.00307    -0.00619
  
  S  C   7   0.13230    -0.10532     0.26388     0.08930     0.14794    -0.06517
 PX  C   7   0.18284     0.03316    -0.03472     0.02746     0.13133     0.17936
 PY  C   7   0.10300     0.02639    -0.00523     0.10108    -0.13051     0.14006
 PZ  C   7   0.01282     0.00231    -0.00131     0.00496    -0.00075     0.01469
  
  S  C   8  -0.12968     0.10314    -0.20981     0.16276     0.17472    -0.04004
 PX  C   8   0.00751     0.19386     0.05477     0.08052    -0.08612    -0.17145
 PY  C   8  -0.00180     0.09278     0.02304    -0.04610     0.15372    -0.13874
 PZ  C   8   0.00166     0.00943     0.00534     0.00019    -0.00254    -0.01013
  
  S  C   9  -0.00054     0.34520    -0.01303     0.00845    -0.10247    -0.16975
 PX  C   9   0.06993    -0.02279     0.06768    -0.19506    -0.10527     0.07707
 PY  C   9  -0.12578     0.07203     0.03641    -0.10759     0.18116    -0.15244
 PZ  C   9   0.00081    -0.00009     0.00552    -0.01469    -0.00257     0.00212
  
  S  C  10   0.34443     0.05408     0.01017     0.00749    -0.03867     0.20526
 PX  C  10   0.04824    -0.05449    -0.13049    -0.16686     0.13034     0.05023
 PY  C  10  -0.07565     0.11184    -0.08808    -0.08574    -0.21392    -0.06968
 PZ  C  10  -0.00293     0.00005    -0.00922    -0.01260    -0.00210    -0.00040
  
  S  C  11   0.14945    -0.10537    -0.23920    -0.09358     0.20556    -0.00210
 PX  C  11  -0.18537    -0.04856    -0.03404     0.09066     0.05333    -0.19469
 PY  C  11  -0.09831    -0.01379    -0.04792    -0.03005    -0.18625    -0.09974
 PZ  C  11  -0.00945    -0.00148    -0.00217    -0.00065    -0.01218    -0.00911
  
  S  H  12   0.07348    -0.05605    -0.09424    -0.00646     0.22481    -0.00061
  
  S  C  13  -0.12432     0.14191     0.20779    -0.16165     0.16097    -0.01663
 PX  C  13  -0.00028    -0.18285     0.05488     0.00338    -0.09244     0.20963
 PY  C  13  -0.00924    -0.11033     0.05318     0.08438     0.17348     0.09594
 PZ  C  13  -0.00323    -0.00838     0.00989    -0.00427     0.00436     0.01370
  
  S  H  14   0.05930    -0.05510     0.11749    -0.00107     0.18956    -0.05827
  
  S  H  15   0.02923     0.15832    -0.09211     0.19467     0.03913     0.11367
  
  S  H  16  -0.11128     0.06281    -0.09796    -0.04272     0.13141    -0.01872
  
  S  H  17   0.08354    -0.10723     0.08682    -0.08184     0.11447    -0.06740
  
  S  H  18   0.13930     0.06597     0.12731     0.15482    -0.00304    -0.13606
  
  S  H  19  -0.06518     0.03905    -0.10348     0.03211     0.20296    -0.04353
  
  S  H  20  -0.06554     0.06274     0.11295    -0.03743     0.21165    -0.01771
  
  S  C  21  -0.25234     0.12230     0.20046     0.11635     0.13501     0.03417
 PX  C  21   0.06053     0.13948     0.12244    -0.14601     0.06650     0.19961
 PY  C  21   0.03003     0.07226     0.06949    -0.04569    -0.10532     0.10282
 PZ  C  21  -0.00024    -0.01329    -0.01287     0.01208    -0.01219    -0.01779
  
  S  C  22   0.03000     0.30877     0.16512    -0.24946     0.00252     0.18660
 PX  C  22   0.00550     0.03276     0.03220    -0.09311     0.05987     0.07580
 PY  C  22   0.16376    -0.01629    -0.17910    -0.11184    -0.08223    -0.13475
 PZ  C  22   0.00022    -0.00186    -0.00282     0.00790    -0.00822    -0.00718
  
  S  C  23   0.29869     0.09597    -0.24421    -0.19759    -0.03710    -0.19064
 PX  C  23  -0.02847     0.13796     0.07261    -0.17432    -0.02722     0.05460
 PY  C  23   0.03808    -0.06548    -0.09225     0.01209     0.06743    -0.09266
 PZ  C  23  -0.00520    -0.01215     0.00024     0.01904     0.00073    -0.00037
  
  S  C  24   0.18454    -0.21477    -0.13969     0.16201     0.13067    -0.00958
 PX  C  24   0.11576     0.08806    -0.16089    -0.08254    -0.09716    -0.19460
 PY  C  24   0.06145     0.04384    -0.07392    -0.07013     0.09524    -0.07471
 PZ  C  24  -0.00728    -0.00516     0.00726     0.00876     0.00046     0.00818
  
  S  H  25  -0.11796     0.06095     0.09539     0.03870     0.14868     0.02264
  
  S  H  26   0.00598     0.16889     0.11355    -0.16825     0.04427     0.15129
  
  S  H  27   0.15218     0.05842    -0.14023    -0.14724     0.00527    -0.12347
  
  S  H  28   0.07801    -0.11399    -0.04208     0.07582     0.15838     0.03141
  
  S  C  29  -0.20696    -0.15772    -0.10253     0.12446    -0.11393    -0.18229
 PX  C  29  -0.09657     0.03850     0.07848     0.16043     0.11553    -0.06249
 PY  C  29  -0.03449    -0.02165     0.12406     0.06830    -0.18379     0.09937
 PZ  C  29   0.00581    -0.00136     0.00022    -0.00250    -0.00909     0.00388
  
  S  C  30  -0.10727    -0.21835     0.12292     0.08676    -0.10060     0.16353
 PX  C  30   0.01653    -0.08151    -0.10263     0.18018    -0.08901    -0.07183
 PY  C  30   0.07036    -0.05147     0.04836     0.08773     0.21250     0.10927
 PZ  C  30   0.00290     0.00411    -0.00577     0.00118     0.00148    -0.00589




    ROOT NO.   13          14          15          16          17          18

           -25.28814   -23.99210   -22.63344   -21.51486   -20.58328   -19.45507
  
  
  S  C   1   0.04036    -0.12093    -0.01003    -0.17028    -0.05801    -0.00349
 PX  C   1   0.02494     0.24937    -0.00994    -0.02595     0.20743     0.17963
 PY  C   1  -0.14959    -0.00252    -0.17218     0.14991    -0.10723     0.19506
 PZ  C   1  -0.01124     0.00594    -0.01406     0.01835    -0.00370     0.02560
  
  S  C   2   0.16301     0.19071     0.12047     0.08689     0.13749     0.01625
 PX  C   2   0.04471    -0.05351     0.07355     0.19327    -0.11073    -0.14713
 PY  C   2  -0.18861    -0.01106    -0.18726     0.11241    -0.15312     0.07587
 PZ  C   2  -0.00848    -0.00088    -0.00965     0.01083    -0.01083     0.00825
  
  S  C   3  -0.15086    -0.10533    -0.00368     0.11347    -0.04730    -0.14622
 PX  C   3   0.14255    -0.15077     0.14450    -0.10144    -0.01117    -0.03103
 PY  C   3  -0.18682    -0.08182    -0.03273    -0.14482     0.12246    -0.07193
 PZ  C   3  -0.00028    -0.00468     0.00308    -0.01267     0.00511     0.00287
  
  S  C   4  -0.09532    -0.11819    -0.02934    -0.08900    -0.06570    -0.13829
 PX  C   4  -0.09296    -0.14208     0.07595     0.15473     0.15113    -0.05470
 PY  C   4   0.25677    -0.08329     0.13171     0.02433    -0.06099     0.03164
 PZ  C   4   0.00490     0.00036     0.00894    -0.00565     0.00842    -0.00318
  
  S  C   5   0.13887     0.17758     0.09987    -0.13421     0.08973    -0.01026
 PX  C   5  -0.06472    -0.04124    -0.14491    -0.14249    -0.22561    -0.01782
 PY  C   5   0.18403    -0.03582     0.15675    -0.11126    -0.03479    -0.19614
 PZ  C   5   0.01464     0.00696     0.01885    -0.00576     0.01547    -0.01233
  
  S  C   6  -0.03238    -0.11418     0.01593     0.18468    -0.00421     0.01979
 PX  C   6  -0.08687     0.13423    -0.15924    -0.10515    -0.00810     0.24380
 PY  C   6   0.06368     0.20824     0.10187     0.02393     0.24656     0.03995
 PZ  C   6   0.00560     0.01368     0.00858     0.00215     0.01705     0.00085
  
  S  C   7   0.14651    -0.10743    -0.08115    -0.19380    -0.08729     0.14986
 PX  C   7   0.05857     0.13780    -0.18304    -0.09069     0.00907     0.17906
 PY  C   7  -0.10700     0.08820     0.03993    -0.06972     0.20855    -0.01896
 PZ  C   7  -0.00249     0.01116    -0.00604    -0.00777     0.01182     0.00741
  
  S  C   8   0.13212    -0.08862    -0.05063     0.22163    -0.02116     0.17101
 PX  C   8  -0.13045     0.17049    -0.05040     0.04245     0.18613     0.06263
 PY  C   8   0.07472     0.07503    -0.15135     0.07249    -0.10997     0.14923
 PZ  C   8  -0.00509     0.01334    -0.00162    -0.00487     0.01185     0.00040
  
  S  C   9  -0.03796     0.24875     0.03630     0.00038    -0.02137    -0.00856
 PX  C   9   0.02349     0.02378     0.09929    -0.14818    -0.20586    -0.15077
 PY  C   9   0.00268    -0.07596    -0.22183    -0.05383    -0.11045    -0.06036
 PZ  C   9   0.00086    -0.00177     0.00291    -0.01279    -0.01050    -0.01114
  
  S  C  10   0.02632     0.22145     0.01707    -0.01251    -0.00584    -0.00000
 PX  C  10   0.01520    -0.05042    -0.10786     0.21455    -0.14062    -0.13746
 PY  C  10  -0.03222     0.08281     0.22995     0.09911    -0.08581    -0.10078
 PZ  C  10   0.00057    -0.00272     0.00310     0.01466    -0.00945    -0.00981
  
  S  C  11  -0.13494    -0.09879    -0.06578     0.20719     0.09387    -0.14639
 PX  C  11  -0.11863    -0.13728     0.04797    -0.09870     0.17991     0.06049
 PY  C  11   0.04293    -0.07315     0.18741    -0.05383    -0.09043     0.13179
 PZ  C  11   0.00373    -0.01070     0.01038    -0.00193     0.00050     0.01313
  
  S  H  12  -0.12394    -0.04931    -0.13071     0.09993     0.15315    -0.13478
  
  S  C  13  -0.10097    -0.10384    -0.10928    -0.20555     0.03719    -0.15145
 PX  C  13   0.05278    -0.15310     0.17494     0.05605     0.04900     0.14823
 PY  C  13  -0.09562    -0.08755    -0.05767    -0.00627     0.22999    -0.02418
 PZ  C  13  -0.00317    -0.01812     0.00508    -0.00656     0.01431     0.00398
  
  S  H  14   0.15274    -0.06307    -0.11942    -0.07939    -0.16328     0.14619
  
  S  H  15   0.08592    -0.15512     0.09175    -0.16276    -0.05555    -0.20053
  
  S  H  16   0.20449     0.08855     0.19228     0.02684     0.13215    -0.08334
  
  S  H  17   0.19772     0.08247     0.18690    -0.08733     0.09444    -0.12055
  
  S  H  18   0.03473    -0.15078     0.11052     0.16568    -0.00623    -0.17547
  
  S  H  19   0.15337    -0.05780    -0.09354     0.13535    -0.13789     0.15636
  
  S  H  20  -0.12391    -0.05740    -0.14195    -0.12163     0.14021    -0.14109
  
  S  C  21  -0.14866     0.16175     0.09712    -0.12666    -0.13436    -0.01908
 PX  C  21  -0.06030     0.00152     0.14453     0.15911    -0.16476    -0.00295
 PY  C  21   0.17163     0.04160    -0.15069     0.14096    -0.01411    -0.14847
 PZ  C  21   0.01483    -0.00054    -0.02407    -0.01129     0.02137    -0.00409
  
  S  C  22   0.03808    -0.12308     0.00495     0.15431     0.07660    -0.00272
 PX  C  22  -0.08715    -0.13231     0.17776     0.08149     0.02525     0.23841
 PY  C  22   0.07064    -0.18193    -0.10741    -0.07960     0.24123     0.03002
 PZ  C  22   0.01265     0.01255    -0.02402    -0.00741     0.00220    -0.02928
  
  S  C  23  -0.02500    -0.12413    -0.00304    -0.16208     0.02219     0.00849
 PX  C  23   0.03992    -0.23737    -0.00572    -0.03806     0.23917     0.16764
 PY  C  23  -0.14392    -0.01659     0.19190    -0.12941    -0.13725     0.19473
 PZ  C  23   0.00128     0.02388    -0.00567     0.00803    -0.01815    -0.01998
  
  S  C  24  -0.16418     0.17583     0.13494     0.11650    -0.12850    -0.01159
 PX  C  24   0.05630     0.03609    -0.07853    -0.14687    -0.15589    -0.14397
 PY  C  24  -0.17621    -0.01397     0.20048    -0.07398    -0.15118     0.09132
 PZ  C  24   0.00401     0.00397    -0.00481     0.01146     0.00839     0.00298
  
  S  H  25  -0.19054     0.05847     0.18115    -0.09009    -0.11408     0.07768
  
  S  H  26  -0.04157    -0.13186     0.13204     0.14407     0.03466     0.17382
  
  S  H  27  -0.07191    -0.15777     0.10253    -0.17270     0.02694     0.19734
  
  S  H  28  -0.20057     0.06722     0.20219     0.07340    -0.07973     0.09825
  
  S  C  29   0.06842    -0.09213    -0.00441    -0.09257     0.05747     0.14142
 PX  C  29  -0.08951     0.15453    -0.09005    -0.17237     0.07415    -0.08020
 PY  C  29   0.24612     0.08633    -0.12907     0.00612    -0.07783     0.04897
 PZ  C  29   0.01249    -0.00539    -0.00531     0.00791     0.00249     0.01165
  
  S  C  30   0.14849    -0.10162    -0.00901     0.07946     0.08120     0.14177
 PX  C  30   0.11892     0.16818    -0.12615     0.11783    -0.00613    -0.00459
 PY  C  30  -0.16917     0.08289     0.01052     0.09792     0.13379    -0.09404
 PZ  C  30  -0.00088     0.00140    -0.00279     0.00211     0.00293     0.00644




    ROOT NO.   19          20          21          22          23          24

           -18.24974   -17.32015   -16.86776   -16.69665   -16.14095   -15.10723
  
  
  S  C   1  -0.16798    -0.01526     0.05499     0.10994     0.05659    -0.06575
 PX  C   1   0.07101     0.14481     0.08759    -0.02436     0.14822    -0.21795
 PY  C   1   0.14217    -0.15678    -0.07370    -0.07348     0.14812    -0.03925
 PZ  C   1   0.02491    -0.01704    -0.00298    -0.01103     0.02787    -0.03780
  
  S  C   2   0.16272    -0.00808    -0.01124    -0.06737    -0.01980    -0.02917
 PX  C   2   0.10166    -0.16019    -0.12006    -0.05062    -0.16985     0.21186
 PY  C   2  -0.03826    -0.16018     0.14929     0.22342    -0.06908    -0.30076
 PZ  C   2   0.00119    -0.01927     0.01091     0.01327     0.00717    -0.03573
  
  S  C   3  -0.04569    -0.00537     0.16849     0.14723    -0.07419    -0.00116
 PX  C   3  -0.15742    -0.01367     0.02742     0.03293     0.24203     0.15953
 PY  C   3  -0.05227     0.26968     0.02224    -0.07851    -0.00494     0.08604
 PZ  C   3  -0.01250    -0.00036     0.01328     0.00357     0.01820    -0.00674
  
  S  C   4   0.05949     0.08370    -0.14855    -0.16056    -0.07494     0.01526
 PX  C   4   0.13403     0.20833     0.09829     0.01449     0.08333    -0.21573
 PY  C   4   0.11032    -0.12210    -0.10742    -0.06475     0.17833    -0.11818
 PZ  C   4  -0.00741    -0.00243     0.00380     0.00566     0.00445    -0.03137
  
  S  C   5  -0.15859    -0.00631    -0.00498     0.06499    -0.00585     0.05494
 PX  C   5  -0.02917    -0.16586    -0.17753    -0.12709    -0.11191     0.19219
 PY  C   5  -0.09601    -0.10983     0.10386     0.15930    -0.17165    -0.23899
 PZ  C   5  -0.01302     0.00109     0.02448     0.02759    -0.00584    -0.05997
  
  S  C   6   0.16868     0.01156    -0.05046    -0.10892     0.05060     0.03614
 PX  C   6  -0.16906    -0.04338    -0.02654     0.06609     0.25446     0.13048
 PY  C   6   0.00354     0.22347     0.05455    -0.01401     0.05719     0.05088
 PZ  C   6   0.00405     0.01002     0.01145     0.00426     0.00420    -0.03787
  
  S  C   7  -0.09959     0.04681    -0.02064    -0.04676     0.08658    -0.01814
 PX  C   7   0.14124     0.06740    -0.11407    -0.13675    -0.17195    -0.15103
 PY  C   7   0.09580    -0.02896     0.27958     0.05921    -0.03456     0.19784
 PZ  C   7   0.00966    -0.00362     0.02662    -0.00194    -0.00685     0.00483
  
  S  C   8   0.07898     0.02472     0.04567     0.04739     0.07289    -0.02028
 PX  C   8  -0.18646     0.10967    -0.13670     0.04645    -0.15397     0.00132
 PY  C   8  -0.07660    -0.09659     0.25949     0.15463    -0.05673     0.23153
 PZ  C   8  -0.01924     0.00091    -0.00354     0.00350    -0.01348    -0.01177
  
  S  C   9  -0.13878    -0.06543    -0.22432     0.04372    -0.08391    -0.04200
 PX  C   9   0.06940    -0.12974     0.01270    -0.04043     0.08013    -0.00314
 PY  C   9  -0.08274     0.25307    -0.01280    -0.00973    -0.11482     0.00058
 PZ  C   9   0.00155    -0.00360     0.01349    -0.01081     0.00200     0.00026
  
  S  C  10   0.14901    -0.17830     0.14732    -0.02601    -0.06714     0.06374
 PX  C  10   0.04150     0.11125     0.06740     0.00938    -0.06989    -0.02221
 PY  C  10  -0.05897    -0.20466    -0.13608     0.02721     0.11288    -0.05177
 PZ  C  10  -0.00298    -0.00061     0.02006    -0.00795     0.00009     0.00414
  
  S  C  11  -0.09834     0.05488    -0.01066     0.04117     0.07469     0.01744
 PX  C  11  -0.17040    -0.00944    -0.16358     0.02356     0.13568    -0.00776
 PY  C  11  -0.08957    -0.09543     0.17740    -0.24272     0.14382     0.01984
 PZ  C  11  -0.01741     0.00180     0.02750    -0.03003     0.00677     0.01201
  
  S  H  12  -0.04390     0.10430    -0.21466     0.21709    -0.01382    -0.01598
  
  S  C  13   0.09916     0.04148     0.03541    -0.05355     0.07549    -0.02936
 PX  C  13   0.15383    -0.00626    -0.10740     0.19940     0.15402    -0.09375
 PY  C  13   0.08971    -0.12978     0.21891    -0.14045     0.05523     0.06204
 PZ  C  13   0.01705     0.00086     0.02033    -0.00627     0.01082     0.00696
  
  S  H  14  -0.06225     0.08019    -0.27737    -0.12358     0.00496    -0.21897
  
  S  H  15  -0.21135     0.02891     0.03580     0.11912    -0.15241     0.10856
  
  S  H  16   0.14240     0.06125    -0.17266    -0.22792    -0.02018     0.30530
  
  S  H  17  -0.13634    -0.02806     0.15563     0.20887    -0.08476    -0.24153
  
  S  H  18   0.21814     0.03358    -0.00593    -0.11098    -0.19857    -0.09509
  
  S  H  19   0.05743    -0.10336     0.28322     0.12051     0.06329     0.16191
  
  S  H  20   0.05220    -0.07236     0.23607    -0.21776     0.02097     0.07034
  
  S  C  21   0.18288    -0.01513     0.00795     0.06808    -0.00613    -0.03564
 PX  C  21  -0.00797     0.21802    -0.00195     0.13183     0.14527     0.09484
 PY  C  21  -0.11805     0.06823     0.11974    -0.20291     0.05879    -0.16234
 PZ  C  21  -0.00728    -0.02275     0.01479    -0.03512    -0.02377    -0.01400
  
  S  C  22  -0.16023    -0.03302     0.00890    -0.10668     0.03956    -0.04273
 PX  C  22  -0.15746     0.05949    -0.00331    -0.04208    -0.19727     0.12912
 PY  C  22   0.00329    -0.24059    -0.11215     0.05110    -0.01211     0.03044
 PZ  C  22   0.01417    -0.01168     0.00605    -0.00517     0.01922    -0.01532
  
  S  C  23   0.14485     0.00954    -0.01206     0.09028     0.04475     0.01887
 PX  C  23   0.04645    -0.21905    -0.04417     0.02826    -0.21264    -0.07120
 PY  C  23   0.13508     0.17938     0.07721     0.05308    -0.20382     0.03251
 PZ  C  23  -0.00924     0.01769     0.00722    -0.00775     0.01734     0.01477
  
  S  C  24  -0.14842     0.00969    -0.01740    -0.05778     0.01322     0.01480
 PX  C  24   0.12224     0.23080     0.05031     0.04856     0.21620     0.07135
 PY  C  24  -0.03968     0.06975     0.13263    -0.22693    -0.03075    -0.18429
 PZ  C  24  -0.01119    -0.00451    -0.00034     0.00078    -0.01844     0.02280
  
  S  H  25   0.16930     0.03531    -0.09477     0.24966     0.01813     0.15164
  
  S  H  26  -0.20603     0.05784     0.00832    -0.08708    -0.14315     0.09814
  
  S  H  27   0.18341     0.02671     0.02721     0.09668    -0.22785    -0.00075
  
  S  H  28  -0.15409    -0.06899     0.06704    -0.22005    -0.11021    -0.16359
  
  S  C  29  -0.07694    -0.01181     0.10998    -0.18271    -0.08733    -0.01290
 PX  C  29   0.13344    -0.21377    -0.04833    -0.00724    -0.11773    -0.09642
 PY  C  29   0.11366     0.16541     0.01700     0.09533    -0.24136     0.02526
 PZ  C  29  -0.01255     0.02024     0.02215    -0.01699    -0.02212     0.02130
  
  S  C  30   0.05493     0.07393    -0.09306     0.20184    -0.07022     0.06670
 PX  C  30  -0.16396    -0.00274     0.03377    -0.06441    -0.21579     0.13817
 PY  C  30  -0.03914    -0.23937    -0.13392     0.09280     0.06569     0.03660
 PZ  C  30  -0.01069     0.00887     0.02210    -0.01877    -0.02260     0.02498




    ROOT NO.   25          26          27          28          29          30

           -14.89127   -14.79389   -14.77973   -14.38798   -13.80998   -13.53534
  
  
  S  C   1   0.02748    -0.02987     0.03863    -0.01204    -0.05901    -0.00428
 PX  C   1  -0.07305     0.05620    -0.16961     0.04316    -0.15917    -0.05975
 PY  C   1   0.18292     0.18437     0.01597    -0.09647    -0.12778     0.02825
 PZ  C   1   0.08674     0.05589    -0.01617     0.08893    -0.06933     0.22194
  
  S  C   2   0.04104     0.07836    -0.05786    -0.02544     0.01990    -0.00198
 PX  C   2   0.09061    -0.01320     0.13172    -0.06014     0.18802     0.04451
 PY  C   2   0.08132    -0.04128    -0.08453    -0.07302     0.07324    -0.09192
 PZ  C   2   0.09113     0.02958    -0.00678     0.12763    -0.04222     0.23608
  
  S  C   3  -0.05307    -0.01742     0.00940     0.02608    -0.01076     0.00395
 PX  C   3  -0.01121     0.07985     0.15273     0.01043    -0.23941    -0.01568
 PY  C   3  -0.18265    -0.04753    -0.04891     0.10206    -0.04859     0.04700
 PZ  C   3   0.12215     0.03636     0.00311     0.22793    -0.04961     0.30300
  
  S  C   4  -0.03545    -0.03007    -0.04349     0.02112    -0.02796    -0.00453
 PX  C   4  -0.04661    -0.10173     0.00134     0.01340    -0.15723    -0.02923
 PY  C   4   0.15700     0.05613     0.07828    -0.08890    -0.17865    -0.07557
 PZ  C   4   0.14055     0.02364     0.00211     0.21516    -0.03623     0.30504
  
  S  C   5   0.03259    -0.03400     0.07114    -0.03103     0.04601    -0.00052
 PX  C   5   0.04287     0.11306    -0.04885     0.00332     0.12131     0.04322
 PY  C   5   0.16375     0.10115    -0.14089    -0.09594     0.02122     0.02934
 PZ  C   5   0.09777     0.02074    -0.01369     0.12663    -0.04170     0.25811
  
  S  C   6  -0.01413     0.04139    -0.00346     0.01726    -0.05113     0.00490
 PX  C   6   0.07160    -0.06342     0.27857    -0.04041    -0.09594     0.02008
 PY  C   6  -0.21577    -0.17017     0.03608     0.09417     0.01300    -0.08258
 PZ  C   6   0.06016     0.01996    -0.01688     0.10686    -0.04517     0.22722
  
  S  C   7  -0.03012     0.02152    -0.06342     0.01862    -0.00782     0.00403
 PX  C   7   0.00665    -0.04208    -0.18868    -0.02842     0.23843     0.00500
 PY  C   7  -0.00184     0.30078    -0.04939    -0.03658     0.06932     0.03353
 PZ  C   7   0.11349     0.03625    -0.00845     0.21151     0.00007     0.17005
  
  S  C   8  -0.01802    -0.05807     0.05051     0.01085     0.04344     0.01094
 PX  C   8   0.14395    -0.13887     0.06460    -0.08161     0.22266     0.08781
 PY  C   8  -0.20869     0.06954    -0.06327     0.09962     0.16875     0.03057
 PZ  C   8   0.13368     0.00522     0.00521     0.19895     0.00801     0.17471
  
  S  C   9   0.00637     0.02507     0.00034     0.01023     0.00037    -0.01717
 PX  C   9  -0.18295     0.16417    -0.08872     0.07409    -0.23629    -0.10357
 PY  C   9  -0.12376     0.08183    -0.06955     0.07668    -0.13554     0.06328
 PZ  C   9   0.14222     0.01182     0.00020     0.27495     0.00213     0.02371
  
  S  C  10   0.01004    -0.02450    -0.01614    -0.00902     0.00355    -0.00670
 PX  C  10  -0.04314    -0.29199     0.12847     0.02522    -0.19054     0.05314
 PY  C  10   0.00547    -0.12868     0.09379    -0.00552    -0.09774    -0.09052
 PZ  C  10   0.14408    -0.01613     0.01508     0.27865     0.00090     0.03326
  
  S  C  11   0.03324    -0.00830     0.06030    -0.00486     0.00009     0.00897
 PX  C  11   0.02934     0.28534    -0.11162    -0.03647     0.18632    -0.04368
 PY  C  11   0.00197    -0.25153    -0.19082    -0.02405     0.12526     0.07928
 PZ  C  11   0.12836    -0.01168    -0.00869     0.23345     0.04459    -0.11402
  
  S  H  12   0.01634     0.30411     0.12731    -0.01123    -0.02722    -0.07276
  
  S  C  13   0.00955     0.05993    -0.01547    -0.02843    -0.02238    -0.00830
 PX  C  13  -0.08230     0.04326     0.09392     0.02326     0.29874     0.04175
 PY  C  13   0.25082    -0.20593     0.06037    -0.16563     0.08856    -0.01077
 PZ  C  13   0.14289    -0.00972     0.01287     0.22178     0.05065    -0.12495
  
  S  H  14  -0.01269    -0.23642    -0.06198     0.01702     0.04408    -0.02987
  
  S  H  15  -0.09381    -0.18780     0.09464     0.03171     0.16692    -0.02251
  
  S  H  16  -0.01508     0.05787     0.08851     0.01885     0.03376     0.08505
  
  S  H  17   0.13549     0.02514    -0.06060    -0.07522    -0.01240     0.03961
  
  S  H  18  -0.06951     0.08217    -0.25745     0.04467     0.07227    -0.01600
  
  S  H  19  -0.22604     0.08559    -0.05347     0.10391     0.05612    -0.01716
  
  S  H  20   0.22753    -0.14737     0.00507    -0.13507    -0.06707    -0.03659
  
  S  C  21  -0.04386    -0.07046     0.09240     0.04897     0.00312     0.00245
 PX  C  21   0.12501    -0.09643    -0.05717    -0.00939     0.11622     0.02040
 PY  C  21  -0.00083     0.15420     0.29846    -0.03879     0.15944    -0.00361
 PZ  C  21   0.06718     0.01730     0.03158     0.18190     0.02547    -0.24055
  
  S  C  22  -0.03732     0.05531    -0.01298     0.01225     0.04758     0.00692
 PX  C  22   0.12540     0.09403    -0.18847    -0.07671    -0.18477    -0.10113
 PY  C  22  -0.13647    -0.10381    -0.20618     0.09754    -0.09588     0.03230
 PZ  C  22   0.04565    -0.01269     0.03420     0.16626     0.05377    -0.22328
  
  S  C  23   0.02819    -0.04858    -0.00264     0.00398     0.04193    -0.00524
 PX  C  23  -0.14697    -0.09682     0.18856     0.11678    -0.07385     0.01825
 PY  C  23   0.15129     0.05116     0.20385    -0.10359    -0.05153    -0.05223
 PZ  C  23   0.08110     0.00362    -0.01678     0.14488     0.03194    -0.24348
  
  S  C  24  -0.03051     0.02368    -0.09951     0.01855    -0.04630    -0.00585
 PX  C  24   0.18066     0.06992    -0.13635    -0.10532     0.11464    -0.04013
 PY  C  24  -0.11153     0.14232     0.18401     0.06032     0.12282     0.02509
 PZ  C  24   0.09096    -0.01200    -0.00791     0.17490     0.00695    -0.24476
  
  S  H  25   0.02532    -0.19084    -0.21440     0.02930    -0.08419     0.04045
  
  S  H  26   0.10583     0.12133    -0.17025    -0.09488    -0.14837    -0.06928
  
  S  H  27   0.05088    -0.03485     0.25016    -0.03447    -0.06563    -0.01289
  
  S  H  28  -0.18626     0.07003     0.15542     0.10153     0.00889     0.04371
  
  S  C  29   0.03873     0.02258    -0.01720    -0.02900     0.01323    -0.00805
 PX  C  29  -0.13002     0.06724     0.11173     0.06803    -0.11388    -0.05914
 PY  C  29   0.04858     0.07669     0.15158    -0.03704    -0.17225    -0.01609
 PZ  C  29   0.15591     0.00131     0.00769     0.26814     0.03864    -0.27006
  
  S  C  30   0.05475     0.00342     0.00417     0.00523     0.01988    -0.01685
 PX  C  30   0.09728    -0.08444    -0.07922    -0.05789    -0.28987    -0.02094
 PY  C  30  -0.06481    -0.11536    -0.09708     0.04863    -0.04151    -0.01520
 PZ  C  30   0.15854    -0.01027     0.00213     0.26357     0.02716    -0.27291




    ROOT NO.   31          32          33          34          35          36

           -13.07657   -12.83444   -12.16367   -11.80346   -11.70403   -11.45333
  
  
  S  C   1   0.01484     0.00224     0.01323    -0.00366    -0.00458    -0.01557
 PX  C   1  -0.04743    -0.24881    -0.10478     0.04876     0.00591    -0.14052
 PY  C   1   0.26690    -0.05098     0.17322    -0.03563    -0.14936    -0.02125
 PZ  C   1  -0.02346    -0.03030     0.09486    -0.13123     0.23875    -0.02381
  
  S  C   2   0.02740     0.00550    -0.03213     0.02959     0.01855     0.02995
 PX  C   2   0.03943     0.25836     0.06061    -0.02252     0.01040     0.16058
 PY  C   2  -0.12510     0.09342    -0.18951     0.09073     0.09928     0.07480
 PZ  C   2  -0.08343     0.00559     0.02347    -0.06594     0.20232     0.00093
  
  S  C   3  -0.00738     0.02712     0.02442    -0.00683    -0.00855    -0.01031
 PX  C   3   0.07099    -0.17456    -0.10211     0.09873     0.03784    -0.20196
 PY  C   3   0.06344    -0.12239     0.25571    -0.16227    -0.16837    -0.05818
 PZ  C   3  -0.11639     0.00554    -0.01839     0.00594     0.07654     0.00452
  
  S  C   4  -0.01037    -0.02431     0.00011     0.00351     0.00386     0.01758
 PX  C   4   0.02370     0.20849     0.17162    -0.08421    -0.08659     0.19852
 PY  C   4  -0.01130     0.10698    -0.22949     0.17441     0.14775     0.08013
 PZ  C   4  -0.11244     0.02671     0.00713    -0.03857     0.07479     0.00794
  
  S  C   5   0.01956     0.00941    -0.03064     0.02870     0.01238    -0.03626
 PX  C   5  -0.01591    -0.22683    -0.14384     0.06358     0.07919    -0.18242
 PY  C   5   0.20729    -0.09186     0.15350    -0.04724    -0.12417    -0.04816
 PZ  C   5  -0.05951     0.01856     0.10189    -0.14055     0.19614     0.00947
  
  S  C   6   0.00147    -0.00501     0.00212    -0.00196     0.00879     0.01318
 PX  C   6   0.07996     0.23378     0.11667    -0.04009    -0.03061     0.12174
 PY  C   6  -0.25619     0.08184    -0.18303     0.06095     0.10641     0.05484
 PZ  C   6  -0.07058    -0.00590     0.08748    -0.15331     0.27336    -0.00808
  
  S  C   7   0.02109    -0.06871    -0.02596     0.04627     0.02183     0.00698
 PX  C   7  -0.02591     0.14042     0.08329    -0.06654    -0.01854     0.21187
 PY  C   7   0.16454     0.08012    -0.09065     0.15485     0.11205     0.10630
 PZ  C   7  -0.07201     0.03445    -0.06666     0.10720    -0.10141     0.04381
  
  S  C   8  -0.00830     0.06239    -0.01378     0.03765     0.02258    -0.03197
 PX  C   8   0.14783    -0.08014    -0.01591     0.07889     0.03172    -0.22961
 PY  C   8  -0.06401    -0.14160     0.12005    -0.13898    -0.09432    -0.08717
 PZ  C   8  -0.07184     0.01619    -0.04190     0.03971    -0.11071    -0.00998
  
  S  C   9  -0.02721    -0.06125    -0.00372    -0.00061    -0.00763     0.00767
 PX  C   9  -0.14449     0.02592     0.04309    -0.11069    -0.02934     0.24133
 PY  C   9   0.23341     0.06864     0.01774     0.25835     0.09509     0.10512
 PZ  C   9  -0.05966     0.03174    -0.08247     0.10513    -0.30327     0.02775
  
  S  C  10  -0.02994     0.06225     0.00490     0.01497     0.00526    -0.00899
 PX  C  10   0.11964     0.01624     0.06809     0.13152     0.03192    -0.24361
 PY  C  10  -0.23889    -0.12930     0.03399    -0.24620    -0.10643    -0.09716
 PZ  C  10  -0.04721     0.02325    -0.08580     0.16049    -0.29973     0.01798
  
  S  C  11   0.02047    -0.08411     0.01040     0.05121     0.00988     0.00699
 PX  C  11  -0.10242    -0.07316    -0.04855    -0.11191    -0.00884     0.24430
 PY  C  11   0.08947    -0.07056     0.10175     0.16800     0.06752     0.10546
 PZ  C  11   0.02536     0.00190    -0.03180     0.10714    -0.16858     0.04136
  
  S  H  12  -0.11031    -0.01436    -0.11298    -0.20956    -0.05453     0.02528
  
  S  C  13  -0.01192     0.07660     0.02174     0.04378     0.02528     0.00314
 PX  C  13  -0.02952     0.07148     0.09311     0.06203     0.00198    -0.23557
 PY  C  13  -0.11620    -0.06772    -0.07236    -0.19072    -0.03784    -0.11568
 PZ  C  13  -0.00260     0.01979    -0.03671     0.02307    -0.17938    -0.02716
  
  S  H  14  -0.13644    -0.04163     0.11645    -0.17188    -0.10508     0.00813
  
  S  H  15  -0.17739     0.18418    -0.09079     0.01776     0.08472     0.09755
  
  S  H  16   0.13758     0.02832     0.18915    -0.08608    -0.09446     0.01892
  
  S  H  17   0.18215     0.02659     0.20778    -0.08627    -0.12309     0.02673
  
  S  H  18  -0.07594    -0.23913    -0.11793     0.04015     0.03318    -0.12591
  
  S  H  19  -0.11877    -0.05215     0.11388    -0.16039    -0.09405     0.02313
  
  S  H  20  -0.08490    -0.04919    -0.10481    -0.19318    -0.03859     0.01101
  
  S  C  21   0.03193    -0.02671     0.02746     0.03279     0.00977    -0.02674
 PX  C  21   0.15471    -0.19715    -0.14923    -0.11431     0.03583     0.22227
 PY  C  21  -0.11280    -0.16774     0.11160     0.10298     0.00945     0.10284
 PZ  C  21   0.05369     0.01472     0.10579    -0.03120     0.18208    -0.05204
  
  S  C  22   0.01459     0.02675    -0.01508    -0.01067    -0.00267     0.00073
 PX  C  22  -0.17386     0.18588     0.12236     0.04027     0.02613    -0.15929
 PY  C  22   0.15686     0.18895    -0.13403    -0.10837    -0.02201    -0.11787
 PZ  C  22   0.10830    -0.03112     0.09677    -0.09854     0.30019    -0.01818
  
  S  C  23   0.01694    -0.01497    -0.00021    -0.01236     0.01744    -0.01326
 PX  C  23   0.14266    -0.16237    -0.06675    -0.03423     0.03444     0.15189
 PY  C  23  -0.18970    -0.16850     0.15659     0.12091     0.01893     0.08260
 PZ  C  23   0.07288     0.00374     0.12118    -0.10481     0.31416    -0.04679
  
  S  C  24   0.00527     0.03694     0.02212     0.03319     0.00609     0.02164
 PX  C  24  -0.11924     0.15087     0.05088    -0.00740    -0.00687    -0.17701
 PY  C  24   0.13457     0.15565    -0.17964    -0.18140    -0.01922    -0.15181
 PZ  C  24   0.06922    -0.02060     0.09332    -0.07285     0.21034    -0.00489
  
  S  H  25   0.17365     0.03265    -0.17897    -0.14119    -0.01251     0.01601
  
  S  H  26  -0.18970     0.18157     0.11417     0.05546    -0.01090    -0.15031
  
  S  H  27  -0.08193    -0.23920     0.08669     0.09146     0.01258     0.16262
  
  S  H  28   0.17074     0.05770    -0.17397    -0.13995    -0.01698    -0.01470
  
  S  C  29  -0.00750     0.04539    -0.00780    -0.00759     0.00489    -0.00289
 PX  C  29  -0.14191     0.15830     0.18183     0.13894    -0.01731    -0.22652
 PY  C  29   0.01599     0.07759    -0.19343    -0.23225    -0.04999    -0.11563
 PZ  C  29   0.07631     0.00056     0.00612    -0.00518    -0.01793     0.00920
  
  S  C  30   0.00075    -0.04532     0.00214     0.00310     0.00045    -0.00189
 PX  C  30   0.00676    -0.13612    -0.09831    -0.08925    -0.00017     0.23521
 PY  C  30  -0.08477    -0.12508     0.24350     0.26493     0.03921     0.11181
 PZ  C  30   0.06629    -0.00250     0.01110    -0.03637    -0.01515    -0.00130




    ROOT NO.   37          38          39          40          41          42

           -10.54646   -10.02614    -9.62259    -8.26979    -8.02244    -6.71364
  
  
  S  C   1  -0.00588     0.00651    -0.00916     0.00005     0.01220    -0.00887
 PX  C   1   0.00991    -0.01042     0.01631     0.00057    -0.01659     0.00860
 PY  C   1   0.00487    -0.05850     0.03181    -0.00934    -0.04623     0.02639
 PZ  C   1  -0.11294     0.28770    -0.25540     0.02905     0.35088    -0.22209
  
  S  C   2   0.00501    -0.00267     0.00240    -0.00188    -0.00193     0.00034
 PX  C   2  -0.00025     0.00506    -0.00433     0.00247     0.00523    -0.00021
 PY  C   2   0.02433     0.01252     0.01939     0.01744    -0.00780     0.01216
 PZ  C   2  -0.24693     0.02791    -0.34933    -0.25410     0.22984    -0.25684
  
  S  C   3  -0.00258    -0.00315    -0.00457    -0.00848     0.00185    -0.00641
 PX  C   3   0.02575     0.02345     0.01623     0.01762     0.00234    -0.00035
 PY  C   3  -0.01472    -0.01792     0.00159    -0.00165     0.00283    -0.00765
 PZ  C   3  -0.25864    -0.28252    -0.16520    -0.26206    -0.21031     0.14069
  
  S  C   4  -0.00778     0.00849    -0.00910     0.00882     0.00689     0.00933
 PX  C   4  -0.01630    -0.02114    -0.01162    -0.01153     0.00792    -0.00565
 PY  C   4   0.01911     0.02236     0.00026     0.00855     0.00330     0.00805
 PZ  C   4   0.23673    -0.17616     0.28822    -0.21708    -0.27384    -0.12729
  
  S  C   5  -0.01322    -0.00363    -0.01824    -0.01074     0.01532    -0.01630
 PX  C   5   0.02428     0.02629     0.02389     0.01932    -0.01929     0.01544
 PY  C   5  -0.03407    -0.03520    -0.02521    -0.01869     0.01485    -0.01430
 PZ  C   5   0.21722     0.21789     0.26083     0.23030    -0.22978     0.24698
  
  S  C   6   0.01074     0.01239     0.00962     0.01301    -0.00343     0.01005
 PX  C   6  -0.00030     0.00408    -0.00147     0.00462     0.00342     0.00250
 PY  C   6   0.00849     0.00644    -0.00175    -0.01033     0.00377    -0.01117
 PZ  C   6   0.10009     0.39352     0.05436     0.33274     0.05607     0.18204
  
  S  C   7   0.00979     0.00152     0.00219     0.00294    -0.00041     0.00841
 PX  C   7   0.00406    -0.00058    -0.00483    -0.01175     0.01383    -0.01743
 PY  C   7   0.04979     0.02760     0.00609    -0.01143     0.01688    -0.02155
 PZ  C   7  -0.33809    -0.25066    -0.12073     0.15468    -0.15353     0.38265
  
  S  C   8   0.01215    -0.00192     0.00520    -0.00278    -0.00105    -0.00561
 PX  C   8  -0.02577     0.01606    -0.02413     0.01787    -0.00516     0.02547
 PY  C   8  -0.01319    -0.00516    -0.00147     0.00167     0.00166    -0.00125
 PZ  C   8   0.35157    -0.18306     0.25002    -0.17007     0.12708    -0.36331
  
  S  C   9  -0.00316     0.00692    -0.00424    -0.00029     0.00202     0.00839
 PX  C   9  -0.01308    -0.00169     0.00619    -0.01481    -0.02219    -0.00012
 PY  C   9   0.03138     0.01717    -0.00890    -0.00891     0.00219     0.00905
 PZ  C   9   0.27637    -0.06066    -0.01179     0.10560     0.43430    -0.00608
  
  S  C  10  -0.00191     0.00469     0.00023     0.00651     0.00106    -0.00427
 PX  C  10   0.02151     0.00944    -0.00822    -0.02834    -0.01305     0.00381
 PY  C  10  -0.02512    -0.01269     0.00686    -0.00999    -0.01239    -0.00285
 PZ  C  10  -0.23485    -0.03254     0.04204     0.43906     0.11191    -0.00197
  
  S  C  11  -0.00170     0.00772     0.00445     0.00246    -0.00266    -0.00634
 PX  C  11   0.00186    -0.01459    -0.00137     0.00234     0.01243     0.01033
 PY  C  11   0.03967    -0.01332    -0.01936    -0.01819     0.01415     0.03035
 PZ  C  11  -0.29569     0.25509     0.18514     0.17840    -0.14574    -0.37066
  
  S  H  12  -0.01654    -0.01385     0.00686     0.00616     0.00499     0.00393
  
  S  C  13  -0.01664    -0.00333     0.01754     0.00941    -0.01381    -0.02829
 PX  C  13  -0.02314     0.00050     0.01114     0.01445    -0.01557    -0.02666
 PY  C  13  -0.04192    -0.02075     0.02193     0.01493    -0.00921    -0.01780
 PZ  C  13   0.32695     0.11869    -0.29779    -0.14181     0.17032     0.34753
  
  S  H  14  -0.02733    -0.01694    -0.00106    -0.00150    -0.00342    -0.00422
  
  S  H  15   0.00395     0.01665    -0.00296     0.00347     0.00167     0.00296
  
  S  H  16  -0.00974    -0.01399    -0.00112    -0.00328    -0.00420     0.00294
  
  S  H  17  -0.01733    -0.02023    -0.00281     0.00046    -0.00716     0.01030
  
  S  H  18   0.00505    -0.00266     0.00698    -0.00297    -0.00841     0.00032
  
  S  H  19  -0.01153    -0.01017     0.00262    -0.00274    -0.00136    -0.00323
  
  S  H  20  -0.01197    -0.01803     0.00251     0.00246     0.00704     0.01105
  
  S  C  21  -0.00587     0.00658     0.01150    -0.01282     0.00645     0.00985
 PX  C  21  -0.02775    -0.00285     0.05098    -0.03622     0.03198     0.02634
 PY  C  21   0.02264     0.00270    -0.02519     0.00918    -0.01284    -0.00811
 PZ  C  21  -0.19491     0.01763     0.35209    -0.27426     0.24099     0.23169
  
  S  C  22   0.00473     0.00306    -0.00833    -0.00089    -0.00654    -0.00077
 PX  C  22  -0.01954    -0.03517     0.03850     0.00196     0.04514     0.02312
 PY  C  22  -0.01079     0.00368     0.00461    -0.00287    -0.00203     0.00055
 PZ  C  22  -0.10114    -0.25996     0.25830    -0.01025     0.33010     0.19043
  
  S  C  23  -0.00006    -0.01719    -0.00236     0.01468    -0.00241    -0.01006
 PX  C  23   0.01532    -0.03459    -0.01131     0.02956     0.00060    -0.01656
 PY  C  23   0.00709    -0.00648     0.00034     0.00538     0.00473    -0.00165
 PZ  C  23   0.06586    -0.37038    -0.07529     0.31569     0.00370    -0.17567
  
  S  C  24   0.00515     0.00114     0.00124    -0.00327     0.00648     0.00391
 PX  C  24  -0.00535     0.00066    -0.00948     0.00266    -0.01604    -0.00481
 PY  C  24  -0.00216    -0.01244    -0.01996     0.01529    -0.02272    -0.01230
 PZ  C  24   0.17268    -0.19652    -0.29821     0.24287    -0.26658    -0.22629
  
  S  H  25  -0.01332    -0.00549     0.00959     0.00607     0.00051    -0.00757
  
  S  H  26  -0.00567    -0.00352     0.00567     0.00378     0.00595     0.00071
  
  S  H  27   0.00829     0.00427     0.00154    -0.00478     0.00503     0.00399
  
  S  H  28  -0.00122    -0.00732    -0.00458     0.00694    -0.00238    -0.00305
  
  S  C  29  -0.00807     0.00566     0.00684    -0.00402    -0.00511    -0.00874
 PX  C  29  -0.00036     0.03027    -0.01011    -0.00659    -0.02480    -0.01258
 PY  C  29  -0.01921    -0.02777     0.01011     0.02253     0.01046    -0.00411
 PZ  C  29  -0.19916     0.34437     0.16600    -0.24987    -0.20600    -0.13486
  
  S  C  30   0.01435     0.01380    -0.02186    -0.01456    -0.01156     0.01703
 PX  C  30  -0.00931    -0.02184     0.02493     0.00695     0.02155    -0.00137
 PY  C  30   0.02401     0.02185    -0.01087    -0.01490    -0.00385     0.00513
 PZ  C  30   0.20091     0.20636    -0.32117    -0.20200    -0.25601     0.13427




    ROOT NO.   43          44          45          46          47          48

            -1.04861     0.16257     0.31060     1.22685     1.45699     1.77153
  
  
  S  C   1   0.01064    -0.01781     0.00776     0.01333    -0.02678    -0.01354
 PX  C   1  -0.00803     0.01263    -0.00403    -0.01068     0.01184     0.00122
 PY  C   1  -0.02863     0.04003    -0.00954    -0.02720     0.03303     0.00961
 PZ  C   1   0.22978    -0.33543     0.10181     0.23341    -0.30717    -0.08833
  
  S  C   2  -0.00519     0.00552     0.00282    -0.00565     0.00781     0.01729
 PX  C   2   0.00586    -0.00848     0.00009     0.00845    -0.00698    -0.00117
 PY  C   2   0.01467    -0.01690    -0.00800     0.01930    -0.00389    -0.00773
 PZ  C   2  -0.25397     0.28154     0.18777    -0.34238     0.05916     0.24469
  
  S  C   3   0.00371    -0.00961    -0.00493     0.01628    -0.00324    -0.03867
 PX  C   3   0.00388     0.00069     0.01113    -0.01716    -0.01076     0.01142
 PY  C   3   0.00606    -0.00734     0.00841    -0.00058    -0.00542     0.00136
 PZ  C   3  -0.15014     0.14190    -0.30080     0.19003     0.26485    -0.28972
  
  S  C   4   0.00044     0.01435    -0.00653    -0.02986     0.00619     0.04262
 PX  C   4   0.00671    -0.00691    -0.00448     0.00533     0.00407    -0.00217
 PY  C   4  -0.00248     0.00472    -0.00557    -0.00168     0.00344    -0.00446
 PZ  C   4  -0.12717    -0.23083     0.27270     0.27249    -0.21677    -0.22896
  
  S  C   5   0.01251    -0.02483     0.00029     0.03724    -0.00472    -0.04427
 PX  C   5  -0.01733     0.01428     0.01227    -0.00735    -0.00862     0.00083
 PY  C   5   0.02049    -0.01935    -0.02054     0.02232     0.02477    -0.02197
 PZ  C   5  -0.24795     0.26710     0.17439    -0.26530    -0.18662     0.23526
  
  S  C   6   0.00455     0.00611    -0.01641    -0.00993     0.02672     0.01228
 PX  C   6   0.00208     0.00222    -0.00438    -0.00371     0.00543     0.00479
 PY  C   6  -0.00765     0.00006     0.01925    -0.00921    -0.02618     0.01510
 PZ  C   6   0.18649    -0.01808    -0.32952     0.07710     0.37844    -0.13056
  
  S  C   7  -0.00133     0.00364    -0.00300    -0.00125     0.00448     0.04184
 PX  C   7  -0.01265     0.00145     0.00294     0.01544     0.00930    -0.01305
 PY  C   7  -0.02637     0.01190     0.00583     0.01400     0.01603    -0.01113
 PZ  C   7   0.37599    -0.18103    -0.12229    -0.12034    -0.20536     0.35322
  
  S  C   8   0.00699    -0.00256     0.00293     0.00598    -0.00219    -0.01739
 PX  C   8  -0.01909     0.01721     0.00930     0.01035    -0.01185    -0.02289
 PY  C   8   0.00116     0.00381    -0.00195    -0.00776     0.00128     0.01031
 PZ  C   8   0.36614    -0.14933    -0.14204    -0.22691     0.21529     0.33508
  
  S  C   9  -0.00886    -0.00677    -0.01248     0.00039     0.00034     0.03678
 PX  C   9  -0.00260    -0.03110     0.00876     0.00562     0.00387     0.02267
 PY  C   9  -0.00838    -0.01152     0.00548    -0.00085    -0.00441    -0.00132
 PZ  C   9  -0.01156     0.41106    -0.19022    -0.01206    -0.07482    -0.28095
  
  S  C  10   0.00613     0.00123     0.01249    -0.01701    -0.01203    -0.04684
 PX  C  10   0.00169     0.00317    -0.02916    -0.00553    -0.00964     0.00893
 PY  C  10   0.00380     0.00134    -0.01412    -0.00017     0.00200     0.00701
 PZ  C  10   0.00600    -0.01159     0.46052    -0.05607     0.00787    -0.23496
  
  S  C  11  -0.01384    -0.00825    -0.00072     0.01886     0.03109     0.04020
 PX  C  11   0.00768     0.00096     0.01408    -0.00298     0.00106    -0.00956
 PY  C  11   0.02438     0.01082     0.01611    -0.00920    -0.00974    -0.01398
 PZ  C  11  -0.36192    -0.18235    -0.13053     0.20235     0.25994     0.26889
  
  S  H  12   0.00834     0.00778     0.00529    -0.00427    -0.01768    -0.01905
  
  S  C  13   0.02155     0.02352     0.00149    -0.01131    -0.00368    -0.04570
 PX  C  13   0.01769     0.02077    -0.00791    -0.00421    -0.00565    -0.00457
 PY  C  13   0.02043     0.01267     0.00249    -0.01784     0.00604    -0.01075
 PZ  C  13  -0.35164    -0.20083    -0.10401     0.28473    -0.11122     0.32341
  
  S  H  14   0.00032    -0.00267     0.00323     0.00477     0.00149    -0.02569
  
  S  H  15  -0.00668     0.01365    -0.00568    -0.01155     0.02024     0.01095
  
  S  H  16  -0.00080     0.00166    -0.00392     0.00212     0.00048    -0.00847
  
  S  H  17  -0.01004     0.01966     0.00048    -0.02478     0.00185     0.02813
  
  S  H  18  -0.00935     0.00367     0.01183     0.00046    -0.01594    -0.00393
  
  S  H  19  -0.00332     0.00017     0.00045     0.00223    -0.00027     0.00467
  
  S  H  20  -0.01036    -0.00996     0.00148     0.01883     0.00371     0.03547
  
  S  C  21   0.00846     0.01180     0.02037     0.03327     0.01838     0.03446
 PX  C  21   0.03177     0.04208     0.01463     0.03553    -0.01974     0.01093
 PY  C  21  -0.00821    -0.01266    -0.01060    -0.01810    -0.00412    -0.01078
 PZ  C  21   0.22352     0.29522     0.20549     0.35150    -0.01111     0.18768
  
  S  C  22   0.00634     0.00205     0.00516    -0.00638     0.00638    -0.01302
 PX  C  22  -0.02568    -0.03848     0.00764    -0.02481     0.03396    -0.00866
 PY  C  22   0.00593     0.00875     0.01150     0.01835     0.01374     0.01398
 PZ  C  22  -0.18805    -0.31614     0.06669    -0.23815     0.28182    -0.11747
  
  S  C  23  -0.00754    -0.00599    -0.02058    -0.01607    -0.03092    -0.00344
 PX  C  23  -0.01600    -0.00150    -0.02791     0.00087    -0.03498     0.00168
 PY  C  23  -0.00557    -0.00405    -0.00774    -0.00683    -0.00893    -0.00506
 PZ  C  23  -0.17914    -0.07421    -0.31022    -0.10427    -0.36632    -0.03650
  
  S  C  24  -0.00100     0.00972     0.00126     0.02173     0.00247     0.00540
 PX  C  24   0.01446     0.00627     0.02047     0.00547     0.02626     0.00420
 PY  C  24   0.01435     0.00604     0.01848     0.00235     0.02230     0.00383
 PZ  C  24   0.22735     0.31282     0.19088     0.31727     0.18850     0.14998
  
  S  H  25  -0.00809    -0.00707    -0.01449    -0.01664    -0.00823    -0.01718
  
  S  H  26  -0.00765    -0.00507    -0.00419     0.00200    -0.00270     0.00758
  
  S  H  27   0.00176     0.00357     0.00855     0.00997     0.01668     0.00195
  
  S  H  28  -0.00339    -0.00462    -0.00334    -0.00655    -0.00416     0.00016
  
  S  C  29   0.00538     0.01173    -0.02759    -0.01789    -0.04486    -0.03409
 PX  C  29  -0.00319    -0.00991    -0.01637    -0.02461    -0.00635    -0.01239
 PY  C  29  -0.01185     0.00036     0.00278     0.02247     0.01227     0.02014
 PZ  C  29   0.13709     0.14148    -0.30049    -0.18846    -0.34990    -0.16910
  
  S  C  30   0.00483    -0.02769     0.02884    -0.02599     0.03526     0.00345
 PX  C  30  -0.00285     0.00686    -0.00177     0.00771    -0.00072    -0.00171
 PY  C  30  -0.00000    -0.00563    -0.00711    -0.01600    -0.01295    -0.01395
 PZ  C  30   0.14252    -0.20493     0.24551    -0.32785     0.21031    -0.21966




    ROOT NO.   49          50          51          52          53          54

             2.37877     2.42080     2.83964     3.16228     3.28846     3.34057
  
  
  S  C   1  -0.07583     0.08242     0.19181    -0.09381     0.22321    -0.06388
 PX  C   1  -0.00465     0.03731     0.02832    -0.01094     0.05606     0.05097
 PY  C   1   0.01732     0.03465     0.01664    -0.04927    -0.03456    -0.04769
 PZ  C   1  -0.21991    -0.19886     0.05900     0.21305     0.06320    -0.07391
  
  S  C   2   0.08514    -0.14500    -0.24039     0.10938    -0.26965    -0.01703
 PX  C   2   0.00024    -0.02766     0.00071    -0.00493     0.02142    -0.04671
 PY  C   2   0.01119    -0.05189    -0.03776     0.02693    -0.01593    -0.02967
 PZ  C   2   0.14061     0.14837    -0.05946    -0.22637    -0.09781     0.08436
  
  S  C   3  -0.10584     0.22054     0.27099    -0.11304     0.19420     0.07866
 PX  C   3  -0.00545     0.01357    -0.05775     0.06778    -0.00449     0.11871
 PY  C   3  -0.00635     0.03484     0.01201    -0.03097    -0.11242    -0.04625
 PZ  C   3  -0.01354    -0.06131     0.05472     0.28601     0.15224    -0.12965
  
  S  C   4   0.09889    -0.22071    -0.25424     0.16253     0.09466     0.15038
 PX  C   4   0.02153    -0.02916     0.00146    -0.04942    -0.00764    -0.06660
 PY  C   4  -0.00733     0.01356     0.07025    -0.04560     0.14533     0.04816
 PZ  C   4   0.07469     0.01390    -0.09828    -0.26993    -0.14633     0.14653
  
  S  C   5  -0.06073     0.14480     0.19603    -0.17759    -0.07340    -0.19883
 PX  C   5  -0.03183     0.05051     0.04915    -0.01336    -0.04143    -0.01441
 PY  C   5   0.03150     0.00666    -0.03896    -0.00380    -0.03365     0.04529
 PZ  C   5  -0.21507    -0.11799     0.11262     0.20964     0.09879    -0.11096
  
  S  C   6   0.07307    -0.08746    -0.18816     0.13216    -0.03740     0.21272
 PX  C   6   0.01237    -0.01918    -0.02527     0.01209    -0.01885    -0.00648
 PY  C   6  -0.01831    -0.02659     0.01191     0.02662     0.09767     0.02702
 PZ  C   6   0.25983     0.19393    -0.08110    -0.22219    -0.07690     0.07340
  
  S  C   7   0.11074    -0.23144    -0.13110    -0.07006    -0.11582    -0.25714
 PX  C   7   0.00875    -0.00043     0.08309    -0.08661     0.06294    -0.06388
 PY  C   7   0.03703    -0.05021     0.01833    -0.04981     0.02863    -0.06466
 PZ  C   7  -0.15104    -0.05259     0.01497    -0.15402    -0.11673     0.08027
  
  S  C   8  -0.11838     0.23051     0.12777     0.03903    -0.28247    -0.10977
 PX  C   8  -0.03606     0.03720    -0.05916     0.09509    -0.10357     0.04145
 PY  C   8   0.01227    -0.03401    -0.06019     0.05740    -0.01361     0.03035
 PZ  C   8   0.08274     0.09624     0.00876     0.15390     0.11412    -0.08244
  
  S  C   9   0.15274    -0.26914    -0.00548    -0.20763     0.35131    -0.01469
 PX  C   9   0.02196     0.01397     0.06611    -0.04333    -0.05080    -0.06958
 PY  C   9   0.00365     0.04277     0.03142     0.04382     0.05551     0.13736
 PZ  C   9  -0.24662    -0.22305     0.08430    -0.04100    -0.10643     0.03784
  
  S  C  10  -0.13953     0.28030    -0.00034     0.23145    -0.03521     0.30138
 PX  C  10  -0.00751    -0.03099    -0.07191    -0.00973     0.08584     0.02491
 PY  C  10  -0.03030     0.01920    -0.03347     0.05257    -0.16406    -0.06801
 PZ  C  10   0.30232     0.17445    -0.08857     0.02406     0.10829    -0.05944
  
  S  C  11   0.12015    -0.22051     0.14017    -0.13930    -0.13418    -0.21952
 PX  C  11  -0.01359     0.05786     0.06178     0.06875    -0.05323     0.09338
 PY  C  11   0.03018    -0.00705     0.04488     0.00825    -0.03326     0.02571
 PZ  C  11  -0.15627    -0.08261     0.09224     0.11229    -0.03182    -0.00706
  
  S  H  12  -0.06503     0.13002    -0.09142     0.08959     0.05291     0.11351
  
  S  C  13  -0.14257     0.17450    -0.10812     0.10559    -0.22765    -0.12296
 PX  C  13  -0.01678    -0.01975    -0.07956    -0.04795     0.08411    -0.05814
 PY  C  13   0.02398    -0.07130    -0.00970    -0.04426     0.08509    -0.02078
 PZ  C  13   0.08686     0.16251    -0.11141    -0.07584     0.02759     0.03553
  
  S  H  14  -0.05937     0.13081     0.08024     0.04165     0.03347     0.13988
  
  S  H  15   0.04993    -0.04867    -0.11809     0.05196    -0.15212     0.02580
  
  S  H  16  -0.04621     0.08238     0.15058    -0.07891     0.15502    -0.01872
  
  S  H  17   0.02554    -0.07567    -0.10793     0.11171     0.01657     0.09329
  
  S  H  18  -0.04986     0.06060     0.12754    -0.08827     0.01202    -0.15737
  
  S  H  19   0.06512    -0.13105    -0.07953    -0.03769     0.14841     0.03857
  
  S  H  20   0.07438    -0.08868     0.05960    -0.07213     0.11185     0.04088
  
  S  C  21   0.11046    -0.10091     0.21248     0.02368    -0.22276     0.02219
 PX  C  21  -0.00114     0.05576    -0.03420     0.03896     0.03983     0.04000
 PY  C  21  -0.00456    -0.00182     0.00789    -0.00027    -0.01184     0.04088
 PZ  C  21   0.20464     0.09223     0.06914     0.18656     0.04533    -0.10170
  
  S  C  22  -0.09033     0.06604    -0.18030    -0.03956     0.17993    -0.14007
 PX  C  22  -0.01453    -0.03569     0.02710    -0.01787    -0.02294     0.02256
 PY  C  22   0.00124    -0.01457     0.00669    -0.01194    -0.04500    -0.07305
 PZ  C  22  -0.32122    -0.13588    -0.07329    -0.18442    -0.03438     0.11198
  
  S  C  23   0.12185    -0.06667     0.20098     0.06115    -0.06803     0.27303
 PX  C  23   0.01381     0.03401    -0.01572     0.02108    -0.03745    -0.04937
 PY  C  23  -0.00140     0.01139    -0.01952     0.00240     0.04654     0.00466
 PZ  C  23   0.32437     0.13333     0.05806     0.17608     0.03296    -0.14776
  
  S  C  24  -0.12127     0.10742    -0.21797    -0.03330     0.00499    -0.27697
 PX  C  24  -0.00932    -0.02814    -0.00008    -0.02537     0.03288    -0.01550
 PY  C  24   0.02270    -0.04842     0.05310    -0.00917     0.01280     0.03638
 PZ  C  24  -0.23415    -0.06985    -0.07732    -0.17568    -0.01358     0.13109
  
  S  H  25  -0.07032     0.05234    -0.13540    -0.02785     0.12735    -0.03867
  
  S  H  26   0.05359    -0.04197     0.10927     0.02153    -0.11782     0.08007
  
  S  H  27  -0.07949     0.04316    -0.12843    -0.04185     0.03261    -0.17932
  
  S  H  28   0.06618    -0.05324     0.12615     0.02266    -0.02727     0.15382
  
  S  C  29  -0.13536     0.17437    -0.25711     0.02460     0.20965     0.04016
 PX  C  29   0.00443    -0.03526    -0.01619    -0.04399     0.05641    -0.01436
 PY  C  29  -0.00953    -0.01393    -0.03791    -0.03124    -0.04482    -0.13115
 PZ  C  29  -0.01999     0.00937    -0.11003    -0.23118    -0.02636     0.09396
  
  S  C  30   0.14579    -0.16472     0.25105     0.00105     0.01797     0.19111
 PX  C  30   0.00155     0.01077     0.05649     0.03136    -0.11447     0.00980
 PY  C  30  -0.00661     0.02531    -0.01623     0.01977     0.06302     0.09405
 PZ  C  30   0.04258    -0.04120     0.10408     0.20988    -0.00739    -0.14460




    ROOT NO.   55          56          57          58          59          60

             3.59533     3.68986     3.78739     3.88924     4.18434     4.21279
  
  
  S  C   1   0.02925    -0.29731    -0.26759     0.11923    -0.09003     0.01114
 PX  C   1  -0.02752     0.06863     0.01407     0.10720    -0.11067    -0.03762
 PY  C   1   0.01125    -0.06808    -0.00722    -0.08494     0.06680     0.00487
 PZ  C   1   0.09579     0.05577     0.03981    -0.02430     0.01310     0.00050
  
  S  C   2   0.02399     0.02778     0.09102    -0.27147     0.26675     0.07787
 PX  C   2   0.02943    -0.16127    -0.12683    -0.00819    -0.00464     0.01321
 PY  C   2   0.02467    -0.06843    -0.05943     0.01093    -0.06191    -0.01982
 PZ  C   2  -0.12713    -0.04896    -0.02561     0.01741    -0.01455    -0.00657
  
  S  C   3  -0.07394     0.26040     0.17017     0.15109    -0.00371     0.03420
 PX  C   3  -0.03599     0.02400    -0.04752    -0.01870     0.14831     0.10757
 PY  C   3   0.00168     0.08084     0.13217    -0.12936     0.08596    -0.00628
 PZ  C   3   0.22645     0.05636     0.01912    -0.02898     0.02320     0.01507
  
  S  C   4  -0.00771    -0.20287    -0.28414     0.11623    -0.00988     0.05884
 PX  C   4   0.01610    -0.10904    -0.00951    -0.11512     0.14211     0.04740
 PY  C   4  -0.04038     0.07175     0.05172     0.08052     0.07249     0.07531
 PZ  C   4  -0.22337    -0.06889    -0.04243     0.03578    -0.02698    -0.01765
  
  S  C   5   0.03444    -0.10042     0.09501    -0.25788     0.25893     0.06646
 PX  C   5  -0.00856     0.14716     0.12971     0.01298    -0.04468    -0.02083
 PY  C   5  -0.03125     0.07858     0.05267     0.01269     0.00330     0.00165
 PZ  C   5   0.12919     0.04384     0.04138    -0.04138     0.04806     0.02185
  
  S  C   6  -0.08226     0.34476     0.15591     0.18208    -0.14588    -0.03278
 PX  C   6   0.00948    -0.01300    -0.00062    -0.03160     0.01295    -0.01031
 PY  C   6   0.00545    -0.06538    -0.10926     0.11188    -0.10544    -0.01514
 PZ  C   6  -0.09624    -0.07288    -0.04934     0.01414    -0.01383    -0.00669
  
  S  C   7   0.08928    -0.17416     0.04716    -0.05427    -0.26228    -0.23638
 PX  C   7  -0.00229     0.08006     0.10390     0.07303    -0.06514    -0.01877
 PY  C   7   0.01069     0.03485     0.05657     0.04221     0.02901     0.05766
 PZ  C   7  -0.21328    -0.04135     0.00533     0.01398    -0.00164    -0.00491
  
  S  C   8   0.07750     0.10473     0.05136    -0.10277    -0.26046    -0.21927
 PX  C   8   0.00137    -0.05293    -0.13198     0.04324    -0.03107     0.04022
 PY  C   8   0.01096    -0.04585    -0.08087     0.02157    -0.06605    -0.03085
 PZ  C   8   0.20229     0.04021     0.00232    -0.01331     0.02190     0.02947
  
  S  C   9  -0.05437     0.02622     0.19527     0.01363     0.13961    -0.04614
 PX  C   9   0.04755     0.05507     0.05001    -0.07657    -0.10995    -0.13779
 PY  C   9  -0.00645     0.02287    -0.07523    -0.08988     0.07650    -0.09894
 PZ  C   9  -0.27936    -0.05604     0.01421    -0.00045    -0.00906    -0.04103
  
  S  C  10  -0.02945    -0.01970    -0.21776    -0.07385     0.11693    -0.01772
 PX  C  10  -0.02029    -0.08109     0.07904    -0.05604     0.02418    -0.17053
 PY  C  10   0.03510    -0.05633    -0.05084    -0.02470    -0.14609    -0.04791
 PZ  C  10   0.29459     0.06403    -0.00830    -0.00108    -0.00643     0.01263
  
  S  C  11   0.02235     0.16731    -0.08351     0.10799    -0.10448     0.34214
 PX  C  11   0.00061     0.04931    -0.15503     0.00579     0.03542     0.04542
 PY  C  11   0.02371     0.03311    -0.06883    -0.00106     0.04419    -0.08259
 PZ  C  11  -0.25362    -0.07290     0.03484    -0.01362     0.00389    -0.03687
  
  S  H  12   0.00530    -0.12682     0.06736    -0.05366     0.08370    -0.32967
  
  S  C  13   0.01271    -0.10952     0.02623     0.20180    -0.08022     0.32330
 PX  C  13  -0.01293    -0.03856     0.11837     0.09296     0.05825    -0.02344
 PY  C  13  -0.03382    -0.00358     0.06090     0.04224     0.02572     0.03207
 PZ  C  13   0.23928     0.03874    -0.02209     0.01193    -0.00778     0.05799
  
  S  H  14  -0.05398     0.13181    -0.02348     0.02626     0.22681     0.23177
  
  S  H  15  -0.01300     0.18496     0.17829    -0.08666     0.03895    -0.02917
  
  S  H  16  -0.00469    -0.02208    -0.04884     0.18200    -0.23339    -0.08783
  
  S  H  17  -0.00516     0.06060    -0.05362     0.15017    -0.20478    -0.07142
  
  S  H  18   0.06436    -0.23474    -0.09802    -0.13916     0.08748     0.00379
  
  S  H  19  -0.05037    -0.08165    -0.02291     0.06190     0.22362     0.20983
  
  S  H  20   0.00745     0.08133    -0.01937    -0.11637     0.06070    -0.28016
  
  S  C  21   0.10451     0.01274    -0.08703     0.28772     0.25764    -0.22617
 PX  C  21  -0.00131    -0.10761     0.13827     0.04899     0.03908    -0.03105
 PY  C  21   0.03668    -0.05896     0.07665     0.01457    -0.03206     0.04924
 PZ  C  21  -0.20688    -0.03523     0.03168    -0.03882    -0.03522     0.02812
  
  S  C  22  -0.16445     0.20072    -0.21237    -0.26469    -0.10906     0.02617
 PX  C  22   0.02322     0.01583    -0.02943     0.00049     0.02278    -0.04763
 PY  C  22  -0.00600     0.07189    -0.09917     0.09545     0.11036    -0.09595
 PZ  C  22   0.17019     0.02062    -0.01458     0.00842     0.00221     0.00372
  
  S  C  23   0.12758    -0.24379     0.27090    -0.01176    -0.08895     0.07571
 PX  C  23   0.00983    -0.03489     0.04280     0.13438     0.09142    -0.06498
 PY  C  23  -0.03336     0.01731    -0.01544    -0.09853    -0.05970     0.01871
 PZ  C  23  -0.18090     0.00871    -0.01795    -0.00416     0.00542    -0.00857
  
  S  C  24  -0.05615     0.08554    -0.06716     0.25383     0.22065    -0.17399
 PX  C  24  -0.03431     0.09793    -0.12241    -0.08083    -0.00922    -0.00930
 PY  C  24  -0.01535     0.07027    -0.10505    -0.06116     0.02381    -0.04027
 PZ  C  24   0.19095     0.01795    -0.00904    -0.01129    -0.01047     0.01602
  
  S  H  25  -0.06294    -0.00152     0.05960    -0.18914    -0.21439     0.22092
  
  S  H  26   0.10644    -0.13085     0.14516     0.17097     0.04424     0.03497
  
  S  H  27  -0.07449     0.15329    -0.16884     0.01812     0.04312    -0.01036
  
  S  H  28   0.04347    -0.06269     0.05337    -0.14508    -0.16988     0.16519
  
  S  C  29  -0.03615    -0.20884     0.31177    -0.05265    -0.04182    -0.02779
 PX  C  29  -0.02327     0.05293    -0.02589    -0.14549    -0.13264     0.12753
 PY  C  29   0.00067    -0.00263     0.05151     0.12761    -0.01295     0.13456
 PZ  C  29   0.31787     0.09533    -0.08328     0.01763     0.01331     0.00785
  
  S  C  30  -0.01689     0.15254    -0.24205    -0.28068    -0.05527    -0.07079
 PX  C  30   0.02796    -0.01016    -0.03588     0.02360    -0.06138     0.14416
 PY  C  30   0.00499    -0.09304     0.12041    -0.10600    -0.08403     0.02641
 PZ  C  30  -0.29847    -0.08434     0.08171     0.04354     0.00884    -0.01186




    ROOT NO.   61          62          63          64          65          66

             5.24627     5.31926     5.39118     5.71056     6.13490     6.40686
  
  
  S  C   1  -0.12465    -0.28698    -0.00873     0.10448     0.07254    -0.02448
 PX  C   1   0.10517     0.09710     0.03060    -0.14020    -0.12156     0.04889
 PY  C   1   0.02386     0.25308    -0.02640    -0.00689    -0.01885     0.00903
 PZ  C   1   0.01806     0.05622    -0.00093    -0.01465    -0.01235     0.00474
  
  S  C   2  -0.13792    -0.10976    -0.03806     0.16003     0.12972    -0.05954
 PX  C   2  -0.10372    -0.20457    -0.01056     0.08815     0.06243    -0.02666
 PY  C   2   0.04777     0.08431     0.01194    -0.12686    -0.19599     0.13348
 PZ  C   2  -0.00281    -0.00456    -0.00007    -0.00257    -0.00806     0.00697
  
  S  C   3   0.05586     0.03781     0.00118     0.06031     0.15939    -0.11018
 PX  C   3  -0.13104     0.03169    -0.05633     0.07819    -0.06653     0.09150
 PY  C   3  -0.03030    -0.07640    -0.00156     0.09502     0.16651    -0.12948
 PZ  C   3  -0.00250    -0.00982     0.00022     0.00142    -0.00084     0.00000
  
  S  C   4  -0.05125     0.05922    -0.02359    -0.04474    -0.15109     0.11820
 PX  C   4   0.09885    -0.05663     0.05319    -0.14430    -0.10971     0.04455
 PY  C   4   0.11661     0.05115     0.02314    -0.00702     0.15000    -0.12620
 PZ  C   4  -0.01084     0.01709    -0.00534     0.00555    -0.00202     0.00282
  
  S  C   5   0.13144    -0.15052     0.08206    -0.20086    -0.15409     0.06124
 PX  C   5   0.02188    -0.05450     0.00847     0.05042     0.12794    -0.09041
 PY  C   5   0.05375    -0.20836     0.05918    -0.14116    -0.15507     0.08636
 PZ  C   5   0.02521    -0.04551     0.01751    -0.04124    -0.03631     0.01770
  
  S  C   6   0.05192    -0.26068     0.05837    -0.08672    -0.05089     0.01687
 PX  C   6  -0.02423     0.31934    -0.06038     0.09619     0.08140    -0.03601
 PY  C   6  -0.10072    -0.05933    -0.03602     0.13478     0.10984    -0.04380
 PZ  C   6  -0.01895     0.01275    -0.00933     0.02247     0.01520    -0.00567
  
  S  C   7   0.17893    -0.05084     0.07816    -0.09457     0.08568    -0.11775
 PX  C   7   0.06005    -0.03199     0.01255     0.03640     0.12735    -0.09072
 PY  C   7  -0.06989     0.01054    -0.05595     0.12521    -0.08873     0.29304
 PZ  C   7  -0.00437     0.00344    -0.00385     0.01031     0.00020     0.01537
  
  S  C   8  -0.22458    -0.03126    -0.06432     0.10583    -0.08584     0.10337
 PX  C   8   0.03875     0.00129     0.00833    -0.08919     0.01291    -0.07605
 PY  C   8  -0.11293    -0.01638    -0.03361     0.03891    -0.14956     0.18110
 PZ  C   8   0.01748    -0.00554     0.00447    -0.01151     0.00281    -0.00562
  
  S  C   9  -0.02936     0.01440    -0.00387     0.11492    -0.00920     0.10347
 PX  C   9  -0.17492    -0.01318    -0.05250     0.07001    -0.08138     0.09789
 PY  C   9  -0.09784     0.02229     0.01317    -0.12223    -0.05362    -0.19421
 PZ  C   9  -0.02502     0.00241    -0.00253     0.00088    -0.00959    -0.00044
  
  S  C  10  -0.00024     0.03299     0.04290    -0.15417    -0.00883    -0.20925
 PX  C  10   0.12248    -0.01161     0.05689     0.04545     0.07251     0.06816
[...]
  S   H   18    0.0955   -0.0406    0.0204   -0.0142    0.0497    0.2798   -0.0024    0.0098
  S   H   19    0.1470   -0.1932   -0.2853    0.1791   -0.0904    0.0441   -0.0103    0.2167
  S   H   20   -0.1498   -0.2002   -0.3409   -0.0226    0.1074   -0.0079    0.0538   -0.2399
  S   C   21   -0.1085   -0.0528    0.0148    0.0036   -0.0035    0.0015    0.0854    0.0273
  Px  C   21   -0.1281   -0.1123    0.1708    0.3065   -0.0019   -0.0002   -0.0928    0.0571
  Py  C   21    0.1335    0.0915   -0.0632   -0.1072    0.0056    0.0061    0.3638    0.1380
  Pz  C   21    0.0289    0.0194   -0.0199   -0.0401   -0.0008    0.0002    0.0215   -0.0022
  S   C   22   -0.0535   -0.0163   -0.0395   -0.0538    0.0020   -0.0024   -0.1323   -0.0604
  Px  C   22   -0.0702   -0.0262   -0.0479   -0.0557    0.0087    0.0097    0.5171    0.1751
  Py  C   22   -0.0828   -0.0369    0.0282    0.0524    0.0025    0.0001   -0.0180    0.0377
  Pz  C   22    0.0045    0.0017    0.0032    0.0043   -0.0006   -0.0012   -0.0649   -0.0206
  S   C   23    0.0568    0.0236   -0.0342   -0.0513    0.0009    0.0021    0.1136   -0.0082
  Px  C   23    0.1350    0.0567    0.0116    0.0212    0.0023   -0.0044   -0.1776    0.0774
  Py  C   23    0.0188    0.0128   -0.0626   -0.0879    0.0052   -0.0076   -0.3898   -0.0359
  Pz  C   23   -0.0170   -0.0076    0.0031    0.0066    0.0001    0.0004    0.0171   -0.0063
  S   C   24    0.1327    0.0516    0.0211    0.0052   -0.0051   -0.0012   -0.0519    0.0622
  Px  C   24   -0.0579   -0.0264    0.0280    0.0651    0.0050   -0.0036   -0.1599    0.0759
  Py  C   24    0.1956    0.1241    0.2200    0.3045   -0.0211    0.0040    0.2001   -0.2135
  Pz  C   24   -0.0024   -0.0010   -0.0046   -0.0144   -0.0012    0.0000   -0.0048    0.0077
  S   H   25    0.1938    0.1308   -0.1231   -0.1991    0.0076    0.0032    0.2185    0.0509
  S   H   26    0.0828    0.0327    0.0418    0.0427   -0.0075   -0.0060   -0.3156   -0.1038
  S   H   27   -0.1070   -0.0492    0.0370    0.0482   -0.0043    0.0051    0.2399   -0.0053
  S   H   28   -0.2214   -0.1144   -0.1466   -0.1830    0.0184   -0.0034   -0.1615    0.1294
  S   C   29   -0.1624   -0.1313    0.1199    0.2849    0.0150    0.0001    0.0273    0.0311
  Px  C   29    0.0846    0.0485    0.0205    0.1089    0.0160   -0.0004   -0.1299    0.0448
  Py  C   29   -0.1448   -0.1381   -0.0653   -0.1333   -0.0084   -0.0028   -0.0493    0.0103
  Pz  C   29    0.0021    0.0023   -0.0138   -0.0230    0.0005   -0.0002   -0.0003   -0.0047
  S   C   30    0.1620    0.1177    0.1406    0.2485    0.0019    0.0009   -0.0123    0.0208
  Px  C   30    0.0826    0.0997    0.0196   -0.0691   -0.0262    0.0026    0.0728   -0.2414
  Py  C   30   -0.1397   -0.0953    0.0402    0.2028    0.0274   -0.0010    0.0849   -0.1096
  Pz  C   30   -0.0212   -0.0153   -0.0252   -0.0364    0.0011   -0.0001    0.0037   -0.0092


   Root No.      73        74        75        76        77        78        79        80

                73 A      74 A      75 A      76 A      77 A      78 A      79 A      80 A   

                 9.356     9.538    10.136    10.591    11.020    11.616    11.818    12.247
  
  S   C    1    0.0153    0.0577   -0.0475   -0.0498    0.0586    0.0152    0.0041    0.0014
  Px  C    1    0.1461    0.2400    0.0850   -0.2387   -0.1533   -0.1463    0.0565   -0.2042
  Py  C    1   -0.0299    0.0792   -0.2085   -0.0082    0.2508    0.1243   -0.0267    0.1301
  Pz  C    1    0.0011    0.0167   -0.0203   -0.0087    0.0225    0.0093   -0.0019    0.0088
  S   C    2   -0.0782   -0.0771   -0.0753    0.0426    0.0936    0.0328    0.0287    0.0035
  Px  C    2    0.1243    0.2296    0.0205   -0.2441   -0.0480   -0.1119    0.0940   -0.2128
  Py  C    2   -0.2412   -0.1574   -0.2073   -0.0166    0.2095    0.0121    0.1374   -0.1086
  Pz  C    2   -0.0123   -0.0078   -0.0111   -0.0018    0.0113   -0.0002    0.0089   -0.0086
  S   C    3   -0.0041   -0.0460   -0.0022    0.0650    0.0161    0.0174   -0.0089    0.0164
  Px  C    3   -0.2473   -0.1149   -0.2355   -0.0608   -0.0028   -0.0431   -0.2683    0.0368
  Py  C    3   -0.0795   -0.0083   -0.1294   -0.0662    0.2742   -0.0008    0.3870   -0.2515
  Pz  C    3   -0.0129   -0.0034   -0.0143   -0.0061    0.0064   -0.0030   -0.0020   -0.0049
  S   C    4   -0.0255   -0.0462    0.0022    0.0563   -0.0443   -0.0208    0.0043   -0.0159
  Px  C    4   -0.0354   -0.1303    0.2525   -0.1175   -0.2190   -0.0107   -0.1732    0.1421
  Py  C    4    0.0020   -0.1223    0.1249    0.0343    0.1334    0.0120    0.4333   -0.1944
  Pz  C    4   -0.0022   -0.0072    0.0048    0.0035   -0.0000    0.0002    0.0085   -0.0040
  S   C    5   -0.0502   -0.0871    0.0672    0.0225   -0.1054   -0.0413   -0.0176   -0.0213
  Px  C    5   -0.0052   -0.0515    0.1750   -0.1550   -0.1136    0.0227   -0.1687    0.1698
  Py  C    5    0.1920    0.2888   -0.0974   -0.1408    0.2031    0.1017   -0.0200    0.1250
  Pz  C    5    0.0124    0.0212   -0.0143   -0.0022    0.0165    0.0042    0.0061   -0.0004
  S   C    6    0.0712    0.0716    0.0630   -0.0803   -0.0424   -0.0165   -0.0134    0.0016
  Px  C    6    0.2090    0.1955    0.1440   -0.1773   -0.0725   -0.0241   -0.0238    0.0067
  Py  C    6    0.0397    0.1227   -0.1620   -0.0745    0.2976    0.1825   -0.0748    0.2372
  Pz  C    6   -0.0058   -0.0033   -0.0111    0.0043    0.0148    0.0088   -0.0029    0.0103
  S   C    7    0.1189    0.0153    0.0715    0.0840    0.0447    0.0576    0.0496    0.0005
  Px  C    7   -0.1525   -0.1241   -0.1524    0.0282    0.0213    0.0244   -0.2541    0.0555
  Py  C    7    0.3331   -0.0061    0.1071    0.2439    0.1149    0.1594   -0.0192    0.0027
  Pz  C    7    0.0146   -0.0054    0.0015    0.0155    0.0085    0.0111   -0.0103    0.0024
  S   C    8   -0.0053    0.0440   -0.0805    0.0596   -0.0549   -0.0483   -0.0494    0.0097
  Px  C    8   -0.0390   -0.0432   -0.0261    0.1969   -0.1892   -0.1750    0.1541   -0.0587
  Py  C    8   -0.0185   -0.1606    0.2018   -0.0877    0.0563    0.0435    0.1901   -0.0770
  Pz  C    8   -0.0025   -0.0041    0.0005    0.0115   -0.0119   -0.0105    0.0105   -0.0043
  S   C    9   -0.0002    0.0348   -0.0356    0.0013   -0.0078   -0.0136   -0.0171   -0.0028
  Px  C    9   -0.0602   -0.0046   -0.0861    0.2302   -0.2575   -0.2016    0.1020   -0.0493
  Py  C    9   -0.0353    0.0302    0.1338    0.1252   -0.0766    0.4731   -0.0565   -0.0848
  Pz  C    9   -0.0031    0.0004   -0.0027    0.0128   -0.0141   -0.0046    0.0056   -0.0028
  S   C   10    0.0002    0.0313    0.0433    0.0029    0.0100    0.0333    0.0251    0.0126
  Px  C   10    0.2859   -0.0128   -0.0790    0.2748    0.1263   -0.2703   -0.0046    0.0937
  Py  C   10    0.1489   -0.0630    0.1299    0.1489    0.1248    0.4107   -0.1197   -0.0159
  Pz  C   10    0.0203   -0.0041   -0.0028    0.0194    0.0097   -0.0036   -0.0052    0.0042
  S   C   11   -0.1172    0.0413    0.0745   -0.0822   -0.0142    0.0694    0.0514    0.0347
  Px  C   11    0.1965    0.0223   -0.0204    0.2238    0.0922   -0.2063    0.0517    0.1289
  Py  C   11   -0.2749    0.1591    0.1870   -0.0889    0.0275    0.0545    0.1377    0.1698
  Pz  C   11   -0.0111    0.0108    0.0099    0.0028    0.0045   -0.0037    0.0077    0.0122
  S   H   12   -0.1840    0.0715    0.0972   -0.0901   -0.0116    0.0889    0.0532    0.0492
  S   C   13    0.0086    0.0364   -0.0679   -0.0640    0.0309   -0.0606   -0.0466   -0.0252
  Px  C   13   -0.0339    0.1693   -0.1483    0.0272   -0.0867    0.0926   -0.1290   -0.1924
  Py  C   13   -0.0268   -0.0489    0.1115    0.2168   -0.1391    0.2239    0.0363   -0.0231
  Pz  C   13   -0.0035    0.0096   -0.0069    0.0085   -0.0107    0.0133   -0.0076   -0.0132
  S   H   14    0.2065    0.0266    0.0921    0.1047    0.0574    0.0806    0.0599   -0.0179
  S   H   15    0.0353    0.1250   -0.0738   -0.0859    0.0708    0.0116    0.0076   -0.0039
  S   H   16   -0.1564   -0.1355   -0.1131    0.0497    0.1235    0.0359    0.0515   -0.0034
  S   H   17   -0.1000   -0.1617    0.1011    0.0249   -0.1410   -0.0478   -0.0440   -0.0139
  S   H   18    0.1214    0.1146    0.0806   -0.1022   -0.0397   -0.0132   -0.0148    0.0032
  S   H   19   -0.0047    0.0666   -0.1059    0.0892   -0.0853   -0.0770   -0.0575    0.0254
  S   H   20    0.0055    0.0745   -0.1000   -0.0931    0.0462   -0.0973   -0.0559   -0.0442
  S   C   21    0.0593   -0.0804   -0.0678   -0.0506   -0.0707    0.0594    0.0380   -0.0036
  Px  C   21   -0.1268    0.0299    0.1810   -0.1351    0.1609   -0.0219   -0.1087   -0.1799
  Py  C   21    0.1519   -0.2690   -0.0859   -0.2094   -0.0825    0.1190    0.0433   -0.0884
  Pz  C   21    0.0176   -0.0099   -0.0195    0.0095   -0.0163    0.0029    0.0111    0.0165
  S   C   22   -0.0033    0.0611   -0.0496    0.0643   -0.0521    0.0286    0.0131   -0.0096
  Px  C   22   -0.0233   -0.1345    0.1471   -0.1262    0.1268   -0.0692   -0.0310    0.0263
  Py  C   22    0.1016   -0.1537   -0.1430   -0.1898   -0.1626    0.2231    0.0454   -0.2113
  Pz  C   22    0.0029    0.0157   -0.0180    0.0146   -0.0160    0.0096    0.0037   -0.0046
  S   C   23   -0.0716    0.0884    0.0697    0.0957    0.0408   -0.0377   -0.0189   -0.0035
  Px  C   23    0.1330   -0.2195    0.0042   -0.1963    0.1145   -0.1402   -0.0129    0.2010
  Py  C   23    0.1573   -0.1325   -0.2000   -0.1190   -0.1678    0.1690    0.0472   -0.1208
  Pz  C   23   -0.0092    0.0150   -0.0024    0.0110   -0.0098    0.0117    0.0018   -0.0149
  S   C   24    0.0382   -0.0849    0.0538   -0.0275    0.0753   -0.0605   -0.0360    0.0098
  Px  C   24    0.1487   -0.2399   -0.0527   -0.2487    0.0488   -0.0799    0.0277    0.2148
  Py  C   24   -0.0899    0.2130   -0.1783   -0.0353   -0.1724    0.1022    0.1208    0.1134
  Pz  C   24   -0.0022    0.0007    0.0095    0.0127    0.0034    0.0010   -0.0049   -0.0121
  S   H   25    0.1105   -0.1391   -0.0933   -0.0627   -0.0874    0.0658    0.0554    0.0127
  S   H   26    0.0255    0.0687   -0.0982    0.0657   -0.0838    0.0496    0.0233   -0.0187
  S   H   27   -0.1165    0.1316    0.0934    0.1183    0.0435   -0.0360   -0.0198   -0.0061
  S   H   28    0.0944   -0.1832    0.0704   -0.0607    0.1026   -0.0776   -0.0560    0.0039
  S   C   29    0.0006   -0.0451   -0.0043   -0.0676   -0.0217    0.0305    0.0208    0.0016
  Px  C   29   -0.1820    0.0968    0.2534   -0.0723    0.2290   -0.0737   -0.1439   -0.1752
  Py  C   29   -0.1366    0.1187    0.1124   -0.0015   -0.0603    0.0592    0.3027    0.3694
  Pz  C   29    0.0035    0.0026   -0.0070    0.0072   -0.0107    0.0030    0.0165    0.0217
  S   C   30    0.0252   -0.0556    0.0083   -0.0530    0.0420   -0.0334   -0.0244   -0.0018
  Px  C   30   -0.0100    0.1711   -0.2245   -0.0444   -0.0626    0.0182   -0.1660   -0.1938
  Py  C   30   -0.0195    0.0534   -0.1563   -0.1219   -0.2058    0.1076    0.2911    0.3623
  Pz  C   30   -0.0029    0.0109   -0.0060    0.0060   -0.0037    0.0027   -0.0070   -0.0119


   Root No.      81        82        83        84

                81 A      82 A      83 A      84 A   

                12.597    12.756    13.206    14.377
  
  S   C    1   -0.0568   -0.0222    0.0036    0.0396
  Px  C    1   -0.2283    0.1663   -0.1439    0.1020
  Py  C    1   -0.0037   -0.1619    0.1011    0.0319
  Pz  C    1   -0.0064   -0.0130    0.0069    0.0054
  S   C    2   -0.0182   -0.0182    0.0093    0.0322
  Px  C    2   -0.2822    0.1482   -0.1395    0.1515
  Py  C    2   -0.1793    0.0256   -0.0338    0.1321
  Pz  C    2   -0.0120    0.0040   -0.0040    0.0084
  S   C    3    0.0127    0.0005   -0.0100    0.0226
  Px  C    3   -0.2910    0.0645   -0.2090    0.2395
  Py  C    3   -0.1692    0.0624    0.0133    0.1095
  Pz  C    3   -0.0174    0.0042   -0.0088    0.0132
  S   C    4    0.0132    0.0109    0.0064    0.0223
  Px  C    4   -0.1702   -0.2454    0.1475    0.2189
  Py  C    4   -0.0820   -0.0930    0.1989    0.1343
  Pz  C    4   -0.0016   -0.0026    0.0054    0.0054
  S   C    5   -0.0124    0.0230   -0.0146    0.0224
  Px  C    5   -0.1720   -0.2718    0.1518    0.1929
  Py  C    5   -0.0610   -0.2017    0.1284    0.0665
  Pz  C    5    0.0021   -0.0005    0.0010   -0.0026
  S   C    6   -0.0599   -0.0323    0.0155    0.0438
  Px  C    6   -0.1173   -0.0668    0.0317    0.0823
  Py  C    6   -0.0381   -0.3196    0.2030    0.0830
  Pz  C    6    0.0034   -0.0110    0.0073    0.0001
  S   C    7    0.0599    0.0147    0.0037    0.0048
  Px  C    7   -0.2516    0.0789   -0.2203    0.2626
  Py  C    7   -0.0229    0.0963   -0.1053    0.1498
  Pz  C    7   -0.0112    0.0085   -0.0146    0.0188
  S   C    8    0.0604    0.0291   -0.0188   -0.0035
  Px  C    8   -0.0068   -0.1697    0.2177    0.2521
  Py  C    8   -0.1320   -0.1145    0.1462    0.1289
  Pz  C    8   -0.0019   -0.0109    0.0138    0.0160
  S   C    9    0.0504    0.0315    0.0013    0.0007
  Px  C    9    0.0580   -0.1242    0.2063    0.2534
  Py  C    9   -0.0284    0.2037    0.1091    0.1380
  Pz  C    9    0.0029   -0.0039    0.0123    0.0153
  S   C   10    0.0606    0.0062   -0.0057    0.0005
  Px  C   10    0.0461   -0.0649   -0.2175    0.2742
  Py  C   10   -0.1291    0.1984   -0.1146    0.1519
  Pz  C   10   -0.0028    0.0022   -0.0153    0.0197
  S   C   11    0.0541    0.0129   -0.0186   -0.0072
  Px  C   11    0.1162   -0.0622   -0.2274    0.2644
  Py  C   11    0.1651    0.0181   -0.1738    0.1398
  Pz  C   11    0.0108   -0.0001   -0.0141    0.0150
  S   H   12    0.0364    0.0269   -0.0250    0.0006
  S   C   13    0.0601    0.0213    0.0188   -0.0042
  Px  C   13    0.1886    0.1510    0.2517    0.2391
  Py  C   13   -0.0375    0.0710    0.0959    0.1405
  Pz  C   13    0.0117    0.0123    0.0189    0.0188
  S   H   14    0.0400    0.0276    0.0071    0.0045
  S   H   15   -0.0719   -0.0245    0.0041    0.0427
  S   H   16   -0.0166   -0.0234    0.0193    0.0227
  S   H   17   -0.0128    0.0299   -0.0267    0.0130
  S   H   18   -0.0639   -0.0332    0.0139    0.0412
  S   H   19    0.0527    0.0013   -0.0116    0.0053
  S   H   20    0.0615   -0.0029    0.0199   -0.0052
  S   C   21   -0.0080   -0.0362   -0.0266   -0.0266
  Px  C   21    0.3164   -0.0897   -0.1238    0.1869
  Py  C   21    0.1634   -0.1375   -0.1511    0.0625
  Pz  C   21   -0.0269    0.0070    0.0092   -0.0156
  S   C   22   -0.0629   -0.0296   -0.0018   -0.0408
  Px  C   22    0.1158    0.0705    0.0154    0.0758
  Py  C   22    0.2188   -0.2791   -0.2533    0.0731
  Pz  C   22   -0.0129   -0.0100   -0.0030   -0.0087
  S   C   23   -0.0686   -0.0167    0.0028   -0.0418
  Px  C   23    0.0818    0.3220    0.2101    0.0984
  Py  C   23    0.1020   -0.1660   -0.1382    0.0274
  Pz  C   23   -0.0033   -0.0238   -0.0163   -0.0059
  S   C   24   -0.0155    0.0344    0.0319   -0.0210
  Px  C   24    0.1371    0.3300    0.1979    0.1441
  Py  C   24    0.0979    0.0863    0.0116    0.1100
  Pz  C   24   -0.0095   -0.0154   -0.0076   -0.0089
  S   H   25   -0.0064   -0.0381   -0.0393   -0.0164
  S   H   26   -0.0578   -0.0492   -0.0191   -0.0377
  S   H   27   -0.0710   -0.0178    0.0039   -0.0392
  S   H   28    0.0002    0.0578    0.0555   -0.0054
  S   C   29    0.0096   -0.0060    0.0007   -0.0254
  Px  C   29    0.3091   -0.0631   -0.1100    0.2143
  Py  C   29    0.0874    0.0249   -0.2534    0.1434
  Pz  C   29   -0.0113    0.0039   -0.0048   -0.0019
  S   C   30    0.0010    0.0054   -0.0013   -0.0295
  Px  C   30    0.2248    0.1664    0.2583    0.2145
  Py  C   30    0.0530    0.1519   -0.0502    0.0999
  Pz  C   30    0.0060    0.0015    0.0086    0.0082


              NET ATOMIC CHARGES AND DIPOLE CONTRIBUTIONS

  ATOM NO.   TYPE          CHARGE      No. of ELECS.   s-Pop       p-Pop       
    1          C          -0.036364        4.0364     1.10901     2.92736
    2          C          -0.033221        4.0332     1.10469     2.92853
    3          C           0.019887        3.9801     1.06231     2.91780
    4          C           0.012036        3.9880     1.06830     2.91966
    5          C          -0.025018        4.0250     1.09059     2.93442
    6          C          -0.021591        4.0216     1.09530     2.92629
    7          C          -0.035427        4.0354     1.10395     2.93148
    8          C          -0.036290        4.0363     1.10402     2.93227
    9          C           0.001073        3.9989     1.08578     2.91315
   10          C           0.005783        3.9942     1.07962     2.91459
   11          C          -0.034778        4.0348     1.10512     2.92966
   12          H           0.022187        0.9778     0.97781
   13          C          -0.035726        4.0357     1.10041     2.93532
   14          H           0.023816        0.9762     0.97618
   15          H           0.025456        0.9745     0.97454
   16          H           0.026892        0.9731     0.97311
   17          H           0.020793        0.9792     0.97921
   18          H           0.022712        0.9773     0.97729
   19          H           0.029068        0.9709     0.97093
   20          H           0.028869        0.9711     0.97113
   21          C          -0.038786        4.0388     1.10786     2.93093
   22          C          -0.021623        4.0216     1.08447     2.93716
   23          C          -0.008235        4.0082     1.07575     2.93249
   24          C          -0.030816        4.0308     1.09537     2.93545
   25          H           0.021831        0.9782     0.97817
   26          H           0.019404        0.9806     0.98060
   27          H           0.019673        0.9803     0.98033
   28          H           0.028668        0.9713     0.97133
   29          C           0.021573        3.9784     1.05527     2.92316
   30          C           0.008157        3.9918     1.06733     2.92451
 DIPOLE           X         Y         Z       TOTAL
 POINT-CHG.     0.051     0.270    -0.045     0.279
 HYBRID        -0.219    -0.216    -0.337     0.457
 SUM           -0.167     0.054    -0.383     0.421


          ATOMIC ORBITAL ELECTRON POPULATIONS

     Atom    s        px        py        pz   
    1  C   1.10901   0.97047   0.96275   0.99414
    2  C   1.10469   0.97037   0.94674   1.01143
    3  C   1.06231   0.97232   0.96496   0.98052
    4  C   1.06830   0.96679   0.96986   0.98301
    5  C   1.09059   0.97087   0.95732   1.00624
    6  C   1.09530   0.93649   0.99392   0.99587
    7  C   1.10395   0.96696   0.94482   1.01969
    8  C   1.10402   0.95971   0.95807   1.01449
    9  C   1.08578   0.95977   0.96759   0.98579
   10  C   1.07962   0.96792   0.96524   0.98144
   11  C   1.10512   0.96412   0.94629   1.01925
   12  H   0.97781
   13  C   1.10041   0.97361   0.95184   1.00987
   14  H   0.97618
   15  H   0.97454
   16  H   0.97311
   17  H   0.97921
   18  H   0.97729
   19  H   0.97093
   20  H   0.97113
   21  C   1.10786   0.97137   0.95366   1.00590
   22  C   1.08447   0.94774   0.99123   0.99819
   23  C   1.07575   0.97528   0.95568   1.00153
   24  C   1.09537   0.96418   0.96577   1.00550
   25  H   0.97817
   26  H   0.98060
   27  H   0.98033
   28  H   0.97133
   29  C   1.05527   0.97265   0.97236   0.97814
   30  C   1.06733   0.97510   0.97082   0.97860

 **********************
 *                    *
 * JOB ENDED NORMALLY *
 *                    *
 **********************



 TOTAL JOB TIME:             0.91 SECONDS

 == MOPAC DONE ==


          MOPAC Job: "./tetraceneTraj/tetracene_973.mop" ended normally on Feb 15, 2023, at 11:29.

rm: cannot remove ./tetraceneTraj/tetracene_973.cim: No such file or directory
rm: cannot remove ./tetraceneTraj/tetracene_973.end: No such file or directory
rm: cannot remove ./tetraceneTraj/tetracene_973.log: No such file or directory
rm: cannot remove ./tetraceneTraj/tetracene_973.temp: No such file or directory
rm: cannot remove ./tetraceneTraj/tetracene_973.ple: No such file or directory
rm: cannot remove ./tetraceneTraj/tetracene_973.sts: No such file or directory
