 *******************************************************************************
 ** Site#:    0         For non-commercial use only    Version 20.173L 64BITS **
 *******************************************************************************
 ** Cite this program as: MOPAC2016, Version: 20.173L, James J. P. Stewart,   **
 ** Stewart Computational Chemistry, web-site: HTTP://OpenMOPAC.net.          **
 *******************************************************************************
 **                                                                           **
 **                                MOPAC2016                                  **
 **                                                                           **
 *******************************************************************************

                              INDO CALCULATION RESULTS

 *******************************************************************************
 *  CALCULATION DONE:                                Wed Feb 15 11:23:24 2023  *
 *  INDO       - The INDO Hamiltonian to be used
 *
 *
 *
 *                 CHARGE ON SYSTEM = 0
 *
 *
 *
 *  C.I.=(N,M) - 3 DOUBLY FILLED LEVELS USED IN A C.I. INVOLVING 6 M.O.'S
 *  T=         - A TIME OF 172800.0 SECONDS REQUESTED
 *  DUMP=N     - RESTART FILE WRITTEN EVERY 7200.0 SECONDS REQUESTED
 *  RELSCF     - DEFAULT SCF CRITERION MULTIPLIED BY 0.0000
 *              (DEFAULT SCF CRITERION = 0.00010)
 *  ALLVEC     - PRINT ALL EIGENVECTORS
 **********
 *  WARNING: Specified print options may not behave as expected with INDO
 **********
 *******************************************************************************
INDO C.I.=(6,3) AllVEC CHARGE=0 RELSCF=0.000001


   ATOM   CHEMICAL          X               Y               Z
  NUMBER   SYMBOL      (ANGSTROMS)     (ANGSTROMS)     (ANGSTROMS)
 
     1       C         18.53462850  *  19.47258247  *  22.39885522  *
     2       C         19.96426020  *  19.45673535  *  22.45395329  *
     3       C         20.73653479  *  20.66181658  *  22.44536958  *
     4       C         19.97554807  *  21.96517370  *  22.43322513  *
     5       C         18.51213761  *  21.92125950  *  22.46028047  *
     6       C         17.82041144  *  20.71278893  *  22.41141899  *
     7       C         22.15995131  *  20.64583154  *  22.44189488  *
     8       C         20.72392047  *  23.18329489  *  22.51584917  *
     9       C         22.10735951  *  23.14759905  *  22.50754510  *
    10       C         22.82418593  *  21.85592999  *  22.45277154  *
    11       C         24.26337839  *  21.89117943  *  22.53836801  *
    12       H         24.76641692  *  20.94915757  *  22.48065228  *
    13       C         22.90797625  *  24.33803893  *  22.55304321  *
    14       H         22.70024789  *  19.67493716  *  22.46084605  *
    15       H         17.98007759  *  18.49595362  *  22.35129991  *
    16       H         20.48909517  *  18.49374921  *  22.42424813  *
    17       H         17.91242298  *  22.88476121  *  22.42498417  *
    18       H         16.71712937  *  20.67784763  *  22.40144018  *
    19       H         20.24180192  *  24.15459639  *  22.50920916  *
    20       H         22.34352303  *  25.31906781  *  22.53699461  *
    21       C         26.44089706  *  23.00469513  *  22.55956197  *
    22       C         27.16340320  *  24.21087479  *  22.57573729  *
    23       C         26.49085998  *  25.49256921  *  22.60871659  *
    24       C         25.08267619  *  25.59327095  *  22.64568591  *
    25       H         26.83937578  *  21.99611850  *  22.44834895  *
    26       H         28.24290961  *  24.22476310  *  22.48837848  *
    27       H         27.11023508  *  26.43188405  *  22.68421635  *
    28       H         24.58458250  *  26.55717636  *  22.66403264  *
    29       C         24.99662348  *  23.08532114  *  22.50505518  *
    30       C         24.30131047  *  24.37279641  *  22.50319357  *
 


          CARTESIAN COORDINATES 

    NO.       ATOM           X           Y           Z

     1         C         18.5346     19.4726     22.3989
     2         C         19.9643     19.4567     22.4540
     3         C         20.7365     20.6618     22.4454
     4         C         19.9755     21.9652     22.4332
     5         C         18.5121     21.9213     22.4603
     6         C         17.8204     20.7128     22.4114
     7         C         22.1600     20.6458     22.4419
     8         C         20.7239     23.1833     22.5158
     9         C         22.1074     23.1476     22.5075
    10         C         22.8242     21.8559     22.4528
    11         C         24.2634     21.8912     22.5384
    12         H         24.7664     20.9492     22.4807
    13         C         22.9080     24.3380     22.5530
    14         H         22.7002     19.6749     22.4608
    15         H         17.9801     18.4960     22.3513
    16         H         20.4891     18.4937     22.4242
    17         H         17.9124     22.8848     22.4250
    18         H         16.7171     20.6778     22.4014
    19         H         20.2418     24.1546     22.5092
    20         H         22.3435     25.3191     22.5370
    21         C         26.4409     23.0047     22.5596
    22         C         27.1634     24.2109     22.5757
    23         C         26.4909     25.4926     22.6087
    24         C         25.0827     25.5933     22.6457
    25         H         26.8394     21.9961     22.4483
    26         H         28.2429     24.2248     22.4884
    27         H         27.1102     26.4319     22.6842
    28         H         24.5846     26.5572     22.6640
    29         C         24.9966     23.0853     22.5051
    30         C         24.3013     24.3728     22.5032

           Empirical Formula: C18 H12  =    30 atoms



      MOLECULAR POINT GROUP   :   C2v 


      RHF CALCULATION, NO. OF DOUBLY OCCUPIED LEVELS = 42

 WARNING: INDO only performs single-point calculations
  SCF CRITERION =    0.1000E-09

 Summary of symmetry occupancy in each shell:

 SHELL     
    1   42
    v   42
 TOTAL  84




    ROOT NO.    1           2           3           4           5           6

           -44.75656   -42.77888   -40.30109   -36.86083   -36.02287   -34.13271
  
  
  S  C   1   0.09023     0.20727     0.28714    -0.23653     0.03739    -0.09360
 PX  C   1   0.02388     0.04628     0.04455    -0.00255     0.03545    -0.07734
 PY  C   1   0.03381     0.07419     0.09465    -0.06657    -0.01735     0.03958
 PZ  C   1   0.00131     0.00285     0.00359    -0.00230     0.00034    -0.00096
  
  S  C   2   0.12406     0.23642     0.24136    -0.09133     0.14372    -0.26751
 PX  C   2   0.00262    -0.02113    -0.07377     0.10582     0.04429    -0.04955
 PY  C   2   0.05041     0.08654     0.06854     0.00109     0.01602    -0.01846
 PZ  C   2  -0.00137    -0.00322    -0.00431     0.00290    -0.00183     0.00394
  
  S  C   3   0.24036     0.31297     0.10070     0.17253     0.15930    -0.21150
 PX  C   3   0.01707    -0.04197    -0.14234     0.13017     0.07789    -0.05867
 PY  C   3   0.05220     0.03075    -0.06209     0.08873    -0.08021     0.13341
 PZ  C   3   0.00064    -0.00005    -0.00148     0.00131    -0.00061     0.00120
  
  S  C   4   0.23219     0.30400     0.10128     0.14854    -0.15791     0.21082
 PX  C   4   0.05630     0.01031    -0.12373     0.15344     0.01878    -0.06028
 PY  C   4  -0.01633    -0.05702    -0.09256     0.05708    -0.10354     0.12000
 PZ  C   4   0.00442     0.00471    -0.00092     0.00553    -0.00491     0.00601
  
  S  C   5   0.11667     0.22782     0.24530    -0.12886    -0.13848     0.25177
 PX  C   5   0.04019     0.05733     0.01854     0.05026    -0.03103     0.03216
 PY  C   5  -0.02644    -0.06770    -0.10381     0.09174    -0.01947     0.02073
 PZ  C   5  -0.00139    -0.00347    -0.00512     0.00422     0.00150    -0.00338
  
  S  C   6   0.09023     0.20888     0.29338    -0.25369    -0.05221     0.11039
 PX  C   6   0.04075     0.08652     0.10335    -0.05860    -0.00603     0.00581
 PY  C   6   0.00327     0.00317    -0.00520     0.01844    -0.03548     0.07930
 PZ  C   6   0.00089     0.00188     0.00226    -0.00137    -0.00078     0.00163
  
  S  C   7   0.23848     0.17216    -0.13083     0.22175     0.30807    -0.21130
 PX  C   7  -0.02296    -0.07328    -0.04404    -0.08440     0.03030     0.06441
 PY  C   7   0.08577     0.03218    -0.08566     0.05619     0.01353     0.03983
 PZ  C   7   0.00261     0.00080    -0.00240     0.00086     0.00214    -0.00050
  
  S  C   8   0.23291     0.16824    -0.13528     0.20985    -0.31538     0.23650
 PX  C   8   0.06193    -0.00620    -0.09420     0.01163    -0.03588    -0.04986
 PY  C   8  -0.06186    -0.07586     0.00533    -0.09467    -0.02078    -0.03488
 PZ  C   8  -0.00413    -0.00418     0.00163    -0.00592     0.00394    -0.00507
  
  S  C   9   0.34308     0.05493    -0.27850     0.00044    -0.24788     0.04904
 PX  C   9   0.03186    -0.08913    -0.01996    -0.18975     0.08044    -0.09131
 PY  C   9  -0.04884    -0.05720     0.03619    -0.10140    -0.13235    -0.01614
 PZ  C   9  -0.00133    -0.00199     0.00110    -0.00347    -0.00254    -0.00078
  
  S  C  10   0.34843     0.05486    -0.27778     0.00344     0.22446    -0.03344
 PX  C  10  -0.02231    -0.09806     0.01960    -0.18949     0.08020     0.03835
 PY  C  10   0.04889    -0.04652    -0.03592    -0.11090    -0.14651     0.05250
 PZ  C  10   0.00752    -0.00104    -0.00622    -0.00473     0.00216     0.00051
  
  S  C  11   0.26518    -0.12260    -0.13097    -0.23340     0.31987     0.15489
 PX  C  11  -0.04995    -0.03905     0.09366     0.00878    -0.00384     0.09834
 PY  C  11   0.07312    -0.07022    -0.00334    -0.10208    -0.02733     0.03579
 PZ  C  11  -0.00629     0.00187     0.00506     0.00643    -0.01030    -0.00326
  
  S  H  12   0.08686    -0.03822    -0.03984    -0.06459     0.17504     0.08546
  
  S  C  13   0.25566    -0.11490    -0.13433    -0.22944    -0.31208    -0.17046
 PX  C  13   0.03534    -0.07800     0.04466    -0.08100     0.02652    -0.10206
 PY  C  13  -0.08397     0.00729     0.08011     0.06383     0.00299    -0.05027
 PZ  C  13  -0.00502     0.00111     0.00454     0.00567     0.00495     0.00122
  
  S  H  14   0.07141     0.04995    -0.03493     0.05836     0.15278    -0.10366
  
  S  H  15   0.02190     0.05382     0.08265    -0.08137     0.01626    -0.04228
  
  S  H  16   0.03860     0.07053     0.06707    -0.01766     0.07593    -0.13571
  
  S  H  17   0.03319     0.06280     0.06488    -0.03351    -0.06712     0.12035
  
  S  H  18   0.02256     0.05609     0.08776    -0.09149    -0.02120     0.04871
  
  S  H  19   0.07201     0.04848    -0.04170     0.05413    -0.15891     0.11024
  
  S  H  20   0.07542    -0.03093    -0.03885    -0.05684    -0.15677    -0.07604
  
  S  C  21   0.16283    -0.23559     0.20687     0.12040     0.18016     0.30290
 PX  C  21  -0.05548     0.05895    -0.01546     0.05853    -0.04587    -0.03750
 PY  C  21   0.03565    -0.06905     0.08857     0.10193    -0.03357    -0.02157
 PZ  C  21  -0.00237     0.00303    -0.00193     0.00044    -0.00560    -0.00828
  
  S  C  22   0.12307    -0.21295     0.24855     0.27279     0.04865     0.13335
 PX  C  22  -0.05568     0.08828    -0.08736    -0.06216    -0.00544    -0.01084
 PY  C  22  -0.00426     0.00203     0.00745     0.02986    -0.05161    -0.09564
 PZ  C  22  -0.00072     0.00115    -0.00113    -0.00072    -0.00230    -0.00457
  
  S  C  23   0.12064    -0.20959     0.24599     0.27384    -0.07198    -0.11151
 PX  C  23  -0.03365     0.05026    -0.04335    -0.01465     0.04611     0.08954
 PY  C  23  -0.04415     0.07270    -0.07736    -0.06865    -0.01800    -0.04883
 PZ  C  23  -0.00066     0.00100    -0.00076     0.00021    -0.00126    -0.00291
  
  S  C  24   0.15277    -0.22525     0.20438     0.13476    -0.18211    -0.29416
 PX  C  24   0.00229    -0.02675     0.06292     0.10973     0.03597     0.04106
 PY  C  24  -0.06386     0.08532    -0.06153    -0.00973     0.02263     0.02491
 PZ  C  24  -0.00582     0.00854    -0.00735    -0.00331     0.00603     0.00901
  
  S  H  25   0.05344    -0.07151     0.05490     0.01952     0.10052     0.15445
  
  S  H  26   0.03170    -0.05879     0.07628     0.10069     0.02048     0.05899
  
  S  H  27   0.02908    -0.05427     0.07097     0.09533    -0.02840    -0.04820
  
  S  H  28   0.04553    -0.06492     0.05632     0.03461    -0.08913    -0.14311
  
  S  C  29   0.29601    -0.29231     0.08339    -0.16574     0.17256     0.18850
 PX  C  29  -0.05169    -0.01686     0.11930     0.16637     0.04276     0.10666
 PY  C  29   0.02214    -0.05724     0.07673     0.06698    -0.13089    -0.13001
 PZ  C  29   0.00407    -0.00553     0.00405     0.00046     0.00049     0.00145
  
  S  C  30   0.28493    -0.28167     0.08005    -0.15720    -0.18548    -0.23865
 PX  C  30  -0.00506    -0.05984     0.12828     0.14314     0.07313     0.04998
 PY  C  30  -0.06404     0.02685     0.05366     0.10899    -0.08618    -0.12245
 PZ  C  30   0.00705    -0.00911     0.00598    -0.00013    -0.00793    -0.01202




    ROOT NO.    7           8           9          10          11          12

           -31.85345   -31.30273   -28.63216   -28.28004   -27.10752   -25.98236
  
  
  S  C   1   0.10655     0.30411    -0.23036     0.20932    -0.08116     0.21449
 PX  C   1   0.13634    -0.05354    -0.08081    -0.17510     0.02785     0.07017
 PY  C   1  -0.07926     0.00905     0.08987     0.01033    -0.03196    -0.11668
 PZ  C   1   0.00170     0.00048    -0.00132    -0.00297    -0.00037     0.00039
  
  S  C   2   0.33329     0.03610    -0.15446    -0.15226     0.09549     0.04290
 PX  C   2   0.01973    -0.13391     0.14320    -0.06768     0.09860    -0.19452
 PY  C   2   0.00794    -0.08176     0.07974    -0.07853    -0.04825    -0.11541
 PZ  C   2  -0.00536    -0.00319     0.00497     0.00046    -0.00047    -0.00441
  
  S  C   3   0.16909    -0.20885     0.12599    -0.08849    -0.05246    -0.19619
 PX  C   3  -0.06273     0.02722     0.11163     0.18459     0.06377    -0.06521
 PY  C   3  -0.11794    -0.04119    -0.01742     0.07850    -0.19213     0.08741
 PZ  C   3  -0.00092    -0.00045    -0.00055    -0.00012     0.00012     0.00056
  
  S  C   4  -0.05086    -0.29313    -0.07851    -0.15344    -0.10475     0.18052
 PX  C   4   0.10581     0.03551    -0.06834     0.15575    -0.13106    -0.05067
 PY  C   4  -0.02643     0.01395    -0.11799     0.06854     0.11007     0.13863
 PZ  C   4   0.00014    -0.00563    -0.00623    -0.00109    -0.00148     0.00729
  
  S  C   5  -0.29514    -0.13226     0.18619    -0.13039     0.13644    -0.03854
 PX  C   5   0.05455    -0.13496    -0.10423    -0.15165    -0.04976     0.18641
 PY  C   5   0.03190    -0.07862    -0.06206    -0.05195     0.06627     0.11675
 PZ  C   5   0.00614    -0.00010    -0.00571     0.00074    -0.00248     0.00418
  
  S  C   6  -0.24028     0.21679     0.15214     0.26250    -0.00033    -0.19105
 PX  C   6   0.00850    -0.02004    -0.02193    -0.09442    -0.02997     0.05643
 PY  C   6  -0.11089    -0.12083     0.15190    -0.12440     0.09351    -0.12427
 PZ  C   6  -0.00245    -0.00129     0.00291    -0.00238     0.00107    -0.00281
  
  S  C   7  -0.13616    -0.01333     0.20002     0.16152     0.17447     0.00559
 PX  C   7  -0.15708     0.10847    -0.07165    -0.00931     0.09684     0.21207
 PY  C   7  -0.10446     0.06206    -0.02841     0.07063    -0.16359     0.09302
 PZ  C   7  -0.00285     0.00167    -0.00007    -0.00023     0.00057     0.00195
  
  S  C   8   0.12284     0.00574    -0.23791     0.09482     0.14293     0.06347
 PX  C   8   0.08833     0.17803     0.03071     0.09439    -0.03682    -0.20302
 PY  C   8   0.05535     0.09957     0.02306    -0.01620     0.20506    -0.08310
 PZ  C   8   0.00073     0.00450     0.00439    -0.00193     0.00353    -0.00617
  
  S  C   9   0.14003     0.27200    -0.00319     0.00455    -0.05426    -0.18872
 PX  C   9  -0.06350     0.01925     0.13602    -0.17265    -0.10531     0.01601
 PY  C   9   0.12956     0.01744     0.05683    -0.06479     0.25336    -0.07045
 PZ  C   9   0.00295     0.00146     0.00118    -0.00259     0.00833    -0.00313
  
  S  C  10  -0.25773     0.18899    -0.00302    -0.01688    -0.10345     0.14508
 PX  C  10  -0.06173    -0.01265    -0.09476    -0.18909     0.12712     0.08202
 PY  C  10   0.11760     0.05138    -0.03559    -0.11884    -0.20349    -0.14159
 PZ  C  10  -0.00417     0.00566    -0.00246    -0.00673    -0.00464     0.00138
  
  S  C  11  -0.13363    -0.02543    -0.24152    -0.15121     0.16162     0.00697
 PX  C  11   0.15016    -0.12951    -0.06381     0.09661     0.08122    -0.17331
 PY  C  11   0.08970    -0.06297    -0.00063    -0.04529    -0.18275    -0.13687
 PZ  C  11   0.00738    -0.00206     0.00629     0.00662    -0.00702    -0.00558
  
  S  H  12  -0.06961    -0.01602    -0.13428    -0.02319     0.21502     0.02940
  
  S  C  13   0.14291     0.04997     0.24424    -0.07042     0.20389     0.03738
 PX  C  13  -0.07979    -0.16923     0.06338     0.00752    -0.14202     0.17763
 PY  C  13  -0.04005    -0.09935     0.00919     0.10389     0.14454     0.13371
 PZ  C  13  -0.00379    -0.00334    -0.00532     0.00512     0.00017     0.00133
  
  S  H  14  -0.05537    -0.00699     0.08624     0.04009     0.20924     0.01789
  
  S  H  15   0.05193     0.15617    -0.13458     0.14684    -0.03203     0.14765
  
  S  H  16   0.16271     0.02172    -0.07485    -0.05387     0.10778     0.02728
  
  S  H  17  -0.13952    -0.06057     0.08883    -0.04291     0.12033    -0.01757
  
  S  H  18  -0.11966     0.11853     0.08561     0.18704     0.01559    -0.12882
  
  S  H  19   0.06563     0.00761    -0.10941     0.01511     0.20253     0.04296
  
  S  H  20   0.06982     0.02184     0.09658     0.01720     0.22738     0.03612
  
  S  C  21   0.24939     0.01181     0.15035     0.17662     0.11204     0.04868
 PX  C  21  -0.01756     0.14026     0.14471    -0.10469     0.03102     0.17853
 PY  C  21  -0.00566     0.07990     0.10172    -0.03542    -0.11354     0.09742
 PZ  C  21  -0.00663     0.00292    -0.00072    -0.00685    -0.00662     0.00139
  
  S  C  22   0.07794     0.29948     0.24862    -0.21451    -0.01573     0.19281
 PX  C  22  -0.00513     0.02841     0.03601    -0.09112     0.04422     0.05786
 PY  C  22  -0.12127     0.05828    -0.11937    -0.16206    -0.04466    -0.11868
 PZ  C  22  -0.00508    -0.00099    -0.00768    -0.00215    -0.00180    -0.00820
  
  S  C  23  -0.19817     0.22068    -0.18571    -0.26137     0.00727    -0.20544
 PX  C  23   0.07501     0.10702     0.13566    -0.15401    -0.01947     0.06748
 PY  C  23  -0.05273    -0.04647    -0.12035    -0.00286     0.07552    -0.11287
 PZ  C  23  -0.00472     0.00148    -0.00866    -0.00465     0.00300    -0.01038
  
  S  C  24  -0.24335    -0.10118    -0.22936     0.12169     0.11984    -0.04006
 PX  C  24  -0.05062     0.12168    -0.12632    -0.11830    -0.05225    -0.20052
 PY  C  24  -0.02064     0.06474    -0.07349    -0.08169     0.09979    -0.09635
 PZ  C  24   0.00442     0.00752     0.00011    -0.01038     0.00097    -0.00809
  
  S  H  25   0.11970    -0.00700     0.04504     0.08468     0.13639     0.01006
  
  S  H  26   0.03525     0.16410     0.14555    -0.16179     0.01739     0.13357
  
  S  H  27  -0.09624     0.11649    -0.10562    -0.17767     0.03401    -0.13719
  
  S  H  28  -0.11569    -0.04863    -0.11688     0.05172     0.13370    -0.01563
  
  S  C  29   0.13170    -0.21841    -0.09879     0.09249    -0.11331    -0.16605
 PX  C  29   0.09309     0.01103     0.02479     0.18143     0.11541    -0.02485
 PY  C  29  -0.01078    -0.02415     0.13235     0.07554    -0.17757     0.10518
 PZ  C  29   0.00255    -0.00451    -0.00146     0.00502    -0.00197    -0.00395
  
  S  C  30  -0.02379    -0.24459     0.11516     0.11828    -0.10664     0.17512
 PX  C  30  -0.04679    -0.04140    -0.14639     0.12351    -0.09618    -0.07791
 PY  C  30  -0.08948    -0.00984    -0.02648     0.10691     0.18789     0.11120
 PZ  C  30  -0.00526    -0.00976     0.00017     0.00956     0.00197     0.00883




    ROOT NO.   13          14          15          16          17          18

           -25.11583   -23.96120   -22.79658   -21.48119   -20.53589   -19.24458
  
  
  S  C   1  -0.00069     0.11168    -0.00530     0.17921    -0.04140     0.01987
 PX  C   1   0.01294    -0.23199    -0.01467    -0.00359     0.22707     0.17615
 PY  C   1  -0.13118     0.00761     0.20910    -0.12590    -0.10275     0.17740
 PZ  C   1  -0.00233    -0.00638     0.00407    -0.00383     0.00597     0.01205
  
  S  C   2   0.14688    -0.17822    -0.13066    -0.12186     0.11706     0.00161
 PX  C   2   0.08989     0.04864    -0.06212    -0.17797    -0.13984    -0.17602
 PY  C   2  -0.17485     0.01929     0.22680    -0.08620    -0.13903     0.05837
 PZ  C   2  -0.00243     0.00280     0.00338    -0.00425    -0.00511    -0.00118
  
  S  C   3  -0.11686     0.11448     0.04031    -0.09670    -0.06130    -0.14303
 PX  C   3   0.15687     0.13694    -0.15808     0.12082    -0.01456     0.02317
 PY  C   3  -0.19342     0.08557     0.02652     0.12847     0.13103    -0.05747
 PZ  C   3   0.00107    -0.00011    -0.00036    -0.00393    -0.00300    -0.00139
  
  S  C   4  -0.10784     0.10241     0.01474     0.09767    -0.07832    -0.16164
 PX  C   4  -0.07874     0.15890    -0.04991    -0.17296     0.11125    -0.07424
 PY  C   4   0.24321     0.07499    -0.16594    -0.01405    -0.08430     0.01452
 PZ  C   4   0.00170     0.00533    -0.00187    -0.00290    -0.00521    -0.00283
  
  S  C   5   0.14513    -0.18844    -0.13643     0.12281     0.11352     0.02981
 PX  C   5  -0.10079     0.02084     0.14001     0.16589    -0.20213    -0.02362
 PY  C   5   0.15430     0.01949    -0.17683     0.10907    -0.04377    -0.17738
 PZ  C   5  -0.00167     0.00468     0.00165    -0.00176    -0.00423    -0.00158
  
  S  C   6   0.00728     0.12789     0.01041    -0.16983    -0.04141    -0.01032
 PX  C   6  -0.10760    -0.12305     0.16465     0.11707     0.02617     0.27779
 PY  C   6   0.08200    -0.20057    -0.11049    -0.05904     0.24953     0.06491
 PZ  C   6  -0.00035    -0.00585     0.00076    -0.00267     0.00749     0.00870
  
  S  C   7   0.13782     0.09058     0.06217     0.21091    -0.06740     0.16533
 PX  C   7   0.02008    -0.14105     0.15801     0.05643     0.01955     0.12553
 PY  C   7  -0.13100    -0.08862    -0.03616     0.02846     0.21520    -0.01532
 PZ  C   7   0.00090    -0.00273     0.00107    -0.00329    -0.00287    -0.00243
  
  S  C   8   0.16838     0.10487     0.05718    -0.19209    -0.05936     0.14347
 PX  C   8  -0.09799    -0.14121     0.06635    -0.06310     0.20195     0.08313
 PY  C   8   0.08997    -0.06985     0.17272    -0.03519    -0.08907     0.15294
 PZ  C   8  -0.00199    -0.00671     0.00821    -0.00042    -0.00098     0.00367
  
  S  C   9  -0.02632    -0.21718    -0.02262    -0.00195     0.00636     0.00450
 PX  C   9  -0.02877    -0.06516    -0.10885     0.17059    -0.18331    -0.15556
 PY  C   9   0.02985     0.06368     0.21093     0.10227    -0.08764    -0.06163
 PZ  C   9   0.00115    -0.00136     0.01030     0.00037    -0.00484    -0.00345
  
  S  C  10  -0.02526    -0.22529    -0.03528    -0.00436    -0.00045    -0.00598
 PX  C  10   0.03475     0.02287     0.12212    -0.17088    -0.17027    -0.13454
 PY  C  10  -0.02644    -0.07983    -0.19469    -0.10461    -0.10404    -0.08929
 PZ  C  10   0.00020    -0.00845    -0.00139    -0.00963    -0.00854    -0.00969
  
  S  C  11  -0.07944     0.11035     0.06258    -0.21062     0.06035    -0.14486
 PX  C  11  -0.07072     0.17501    -0.05114     0.06826     0.19536     0.06377
 PY  C  11   0.07015     0.07412    -0.15609     0.05550    -0.10676     0.15896
 PZ  C  11   0.00245    -0.00098    -0.00416     0.00723     0.00192     0.00265
  
  S  H  12  -0.10361     0.06962     0.10586    -0.11268     0.15442    -0.15049
  
  S  C  13  -0.13053     0.09953     0.05062     0.21568     0.05929    -0.16568
 PX  C  13   0.01316     0.15098    -0.16702    -0.08131     0.01989     0.14204
 PY  C  13  -0.09959     0.10499     0.03060    -0.02473     0.21667    -0.03579
 PZ  C  13   0.00037    -0.00307     0.00227    -0.00758     0.00329     0.00026
  
  S  H  14   0.15049     0.05178     0.10006     0.10234    -0.15258     0.13494
  
  S  H  15   0.06599     0.12598    -0.11806     0.16969    -0.03871    -0.17194
  
  S  H  16   0.20275    -0.08674    -0.21697    -0.06412     0.09603    -0.09338
  
  S  H  17   0.19068    -0.09020    -0.21457     0.06160     0.10410    -0.08318
  
  S  H  18   0.06840     0.14915    -0.10133    -0.16844    -0.04685    -0.21741
  
  S  H  19   0.16406     0.05601     0.11191    -0.09369    -0.14351     0.14252
  
  S  H  20  -0.12221     0.06119     0.09749     0.11201     0.14642    -0.15105
  
  S  C  21  -0.17704    -0.17386    -0.11918     0.10882    -0.12992    -0.01250
 PX  C  21  -0.09846    -0.02551    -0.12230    -0.15944    -0.20066     0.00973
 PY  C  21   0.15819    -0.06908     0.15786    -0.09463    -0.03725    -0.14910
 PZ  C  21   0.00985     0.00247     0.00922    -0.00608     0.00207    -0.01291
  
  S  C  22  -0.00140     0.10826    -0.01222    -0.16802     0.02518     0.00229
 PX  C  22  -0.09572     0.15568    -0.15908    -0.12150     0.00862     0.25407
 PY  C  22   0.10600     0.20328     0.09554     0.06647     0.26048     0.00645
 PZ  C  22   0.00476     0.00076     0.00651     0.00990     0.00409    -0.01360
  
  S  C  23   0.02151     0.13780     0.00758     0.18138     0.05273    -0.02817
 PX  C  23   0.02334     0.23757    -0.01579     0.01329     0.20573     0.13208
 PY  C  23  -0.12829     0.02503    -0.17512     0.11702    -0.13077     0.17948
 PZ  C  23  -0.00485     0.00225    -0.00736     0.01285    -0.00854     0.00217
  
  S  C  24  -0.16537    -0.15973    -0.11360    -0.12403    -0.12195     0.01139
 PX  C  24   0.08829    -0.04043     0.06905     0.18493    -0.12296    -0.12733
 PY  C  24  -0.16573     0.02572    -0.19442     0.06670    -0.16366     0.10419
 PZ  C  24  -0.00388     0.00597    -0.00899     0.01134    -0.01076     0.00319
  
  S  H  25  -0.21111    -0.05237    -0.18460     0.07032    -0.08924     0.08719
  
  S  H  26  -0.05874     0.15856    -0.11100    -0.17235     0.02286     0.19400
  
  S  H  27  -0.04702     0.16701    -0.09862     0.16621     0.03053     0.15396
  
  S  H  28  -0.20588    -0.05581    -0.19240    -0.07811    -0.12452     0.11197
  
  S  C  29   0.13904     0.09702     0.02757     0.08718     0.05284     0.14535
 PX  C  29  -0.08656    -0.15563     0.06139     0.15514     0.10477    -0.10683
 PY  C  29   0.20997    -0.11113     0.13527     0.01467    -0.07520     0.03757
 PZ  C  29   0.00232    -0.00072     0.00256     0.00260     0.00629    -0.00629
  
  S  C  30   0.10172     0.08838     0.01658    -0.09286     0.07343     0.12738
 PX  C  30   0.15636    -0.17300     0.15233    -0.10380    -0.01208     0.00542
 PY  C  30  -0.19653    -0.07561    -0.02657    -0.12946     0.13546    -0.10461
 PZ  C  30  -0.00330    -0.00282    -0.00019    -0.01205     0.00797    -0.00336




    ROOT NO.   19          20          21          22          23          24

           -18.35252   -17.23993   -16.99603   -16.72072   -15.95037   -15.38249
  
  
  S  C   1  -0.15526    -0.00982    -0.01954     0.11419     0.06722     0.07280
 PX  C   1   0.09517    -0.16334     0.01673    -0.05191     0.12887     0.05376
 PY  C   1   0.15129     0.19635    -0.05668    -0.09093     0.16565    -0.01729
 PZ  C   1   0.01098    -0.00017     0.00057    -0.00957     0.01570     0.00810
  
  S  C   2   0.16138     0.01582    -0.02311    -0.07423    -0.02264    -0.00704
 PX  C   2   0.06828     0.18380    -0.01843    -0.03522    -0.16002    -0.08160
 PY  C   2  -0.02256     0.04831    -0.13112     0.23420    -0.03613     0.29021
 PZ  C   2   0.00404     0.00752     0.00045    -0.00351     0.00149     0.01287
  
  S  C   3  -0.06144    -0.10557    -0.09763     0.18661    -0.04620     0.04633
 PX  C   3  -0.16034     0.02653    -0.04137     0.04601     0.25332    -0.16120
 PY  C   3  -0.05415    -0.24873     0.11570    -0.08154    -0.02715    -0.11333
 PZ  C   3   0.00442     0.01020     0.00364    -0.00551     0.00336     0.02531
  
  S  C   4   0.02845    -0.00106     0.12689    -0.17396    -0.09602    -0.05833
 PX  C   4   0.13461    -0.22740     0.05499    -0.00722     0.10255     0.14108
 PY  C   4   0.10226     0.18507    -0.00476    -0.09266     0.19957     0.04406
 PZ  C   4   0.00781     0.00811     0.00540    -0.01042     0.00766     0.02217
  
  S  C   5  -0.15439     0.00851     0.00855     0.07710     0.00906     0.00824
 PX  C   5  -0.04570     0.22604     0.01251    -0.12509    -0.14504    -0.17713
 PY  C   5  -0.11244     0.03152    -0.10174     0.18674    -0.13725     0.21605
 PZ  C   5   0.00536     0.00252     0.00029    -0.00436     0.00422     0.01170
  
  S  C   6   0.14942     0.03026     0.01513    -0.11689     0.03617    -0.07624
 PX  C   6  -0.12828     0.08717     0.00285     0.05274     0.27574    -0.04398
 PY  C   6   0.02144    -0.21940     0.08361    -0.03238     0.05260    -0.05005
 PZ  C   6   0.00416    -0.00477     0.00346    -0.00518     0.01406     0.00544
  
  S  C   7  -0.08062    -0.01306     0.03924    -0.05584     0.05464    -0.02599
 PX  C   7   0.16022     0.00495     0.11903    -0.17235    -0.21104     0.11975
 PY  C   7   0.11413    -0.13509    -0.27436     0.10948    -0.07456    -0.19042
 PZ  C   7   0.00153     0.00863     0.00547    -0.00412     0.00245     0.02791
  
  S  C   8   0.11059    -0.02806    -0.02371     0.03727     0.08419     0.04054
 PX  C   8  -0.16042    -0.01981     0.20250     0.00179    -0.12928     0.10086
 PY  C   8  -0.04896    -0.07427    -0.24349     0.22627    -0.09090    -0.14016
 PZ  C   8  -0.00787     0.00005    -0.00168     0.00431    -0.00773     0.01509
  
  S  C   9  -0.13597     0.16262     0.15596    -0.00509    -0.06923     0.06580
 PX  C   9   0.01509     0.10297    -0.10300    -0.01549     0.04465    -0.09617
 PY  C   9  -0.07834    -0.20288     0.11358    -0.02347    -0.11629    -0.05695
 PZ  C   9  -0.00944    -0.00364     0.00739    -0.00463    -0.00646     0.02409
  
  S  C  10   0.13146     0.07563    -0.22190     0.02859    -0.07870    -0.04508
 PX  C  10   0.03961    -0.11812     0.01866     0.02770    -0.03551     0.06661
 PY  C  10  -0.08208     0.23863     0.03681     0.02232     0.12960     0.08008
 PZ  C  10  -0.00198     0.01173     0.00239    -0.00237     0.00616     0.03544
  
  S  C  11  -0.10897    -0.04925     0.03246     0.03597     0.11420    -0.00615
 PX  C  11  -0.16461     0.07280     0.10685    -0.02530     0.11509    -0.05279
 PY  C  11  -0.07179    -0.03243    -0.22005    -0.12919     0.05903    -0.11431
 PZ  C  11  -0.00564     0.01110    -0.00277    -0.00870     0.01364     0.02432
  
  S  H  12  -0.06192     0.02964     0.24187     0.10816     0.06286     0.06196
  
  S  C  13   0.08160    -0.05234    -0.01366    -0.06641     0.07735    -0.01756
 PX  C  13   0.17894     0.06022     0.08422     0.10570     0.16735     0.15783
 PY  C  13   0.09369    -0.01200    -0.21905    -0.06200     0.05994    -0.02322
 PZ  C  13  -0.00957     0.00681    -0.00688    -0.00627     0.00007     0.01932
  
  S  H  14  -0.05593     0.09533     0.28297    -0.18613     0.00087     0.17914
  
  S  H  15  -0.22043    -0.07788     0.02561     0.14486    -0.14676     0.02516
  
  S  H  16   0.12139     0.05076     0.08753    -0.23291    -0.04972    -0.25858
  
  S  H  17  -0.13087    -0.07250    -0.08337     0.23523    -0.03046     0.24899
  
  S  H  18   0.17738    -0.05094     0.00259    -0.10265    -0.22333     0.00086
  
  S  H  19   0.07761    -0.07078    -0.28056     0.18882     0.02862    -0.12853
  
  S  H  20   0.03182    -0.06891    -0.22058    -0.12371     0.01518    -0.09723
  
  S  C  21   0.17291     0.00674     0.00330     0.05292     0.00365     0.06504
 PX  C  21   0.01369    -0.16589     0.18299     0.16223     0.15274    -0.10739
 PY  C  21  -0.12193    -0.16583    -0.12265    -0.23050     0.15518     0.21307
 PZ  C  21  -0.01127    -0.00605    -0.01113    -0.01980     0.03684     0.03541
  
  S  C  22  -0.16391    -0.01784    -0.04381    -0.09182     0.05392     0.00788
 PX  C  22  -0.14938    -0.03160     0.04656     0.00221    -0.24887    -0.18580
 PY  C  22  -0.00745     0.26828    -0.05127     0.04231    -0.07960    -0.06154
 PZ  C  22   0.01121     0.00475    -0.00589    -0.00311     0.03404     0.03258
  
  S  C  23   0.17340     0.02617     0.04163     0.09183     0.05947    -0.00685
 PX  C  23   0.06833     0.17140    -0.09688    -0.01088    -0.17437     0.21538
 PY  C  23   0.16480    -0.17268     0.06542     0.04411    -0.14424     0.06322
 PZ  C  23   0.01547    -0.01267    -0.00027    -0.00356     0.01770     0.02833
  
  S  C  24  -0.16658     0.00491    -0.00884    -0.04431    -0.00813    -0.06083
 PX  C  24   0.12049    -0.18401     0.12087     0.06434     0.19012    -0.17272
 PY  C  24  -0.04041    -0.17530    -0.14298    -0.25784     0.01785     0.20041
 PZ  C  24   0.00295    -0.01528    -0.01318    -0.02430     0.02043     0.03775
  
  S  H  25   0.17882     0.08216     0.16626     0.26479    -0.06277    -0.17496
  
  S  H  26  -0.20281    -0.03285     0.01596    -0.04534    -0.19148    -0.16022
  
  S  H  27   0.22634    -0.02828     0.02074     0.07100    -0.15853     0.15121
  
  S  H  28  -0.15756    -0.05745    -0.16410    -0.24497    -0.06335     0.19349
  
  S  C  29  -0.06424    -0.07470    -0.13090    -0.15723    -0.11175     0.00367
 PX  C  29   0.10097     0.18462    -0.11455    -0.06719    -0.10236     0.14827
 PY  C  29   0.11995    -0.12617     0.11884     0.06896    -0.18456     0.05617
 PZ  C  29  -0.00791     0.01299    -0.01234    -0.01452     0.02480     0.03327
  
  S  C  30   0.07607     0.02363     0.14623     0.15956    -0.07189     0.00077
 PX  C  30  -0.17228    -0.00580     0.00507     0.01600    -0.22978    -0.14735
 PY  C  30  -0.07134     0.27502    -0.03083     0.08385     0.03013    -0.04207
 PZ  C  30  -0.01078     0.02222    -0.00468    -0.00112     0.01424     0.02515




    ROOT NO.   25          26          27          28          29          30

           -14.90221   -14.75433   -14.64155   -14.57259   -13.63212   -13.39087
  
  
  S  C   1   0.00931     0.01999     0.01955     0.02528    -0.04886    -0.01417
 PX  C   1   0.24815     0.11813    -0.04342    -0.15703    -0.07094    -0.09048
 PY  C   1  -0.09840     0.23422     0.11656    -0.09590    -0.05519    -0.05287
 PZ  C   1   0.02064    -0.03667     0.08781    -0.06494    -0.08605     0.21072
  
  S  C   2  -0.00045     0.08907     0.03517    -0.06761     0.03432     0.01341
 PX  C   2  -0.24973    -0.08541     0.04279     0.12884     0.10676     0.08516
 PY  C   2   0.11392     0.14690     0.06572     0.00600     0.05647     0.03460
 PZ  C   2   0.01108    -0.06915     0.12074    -0.06900    -0.08549     0.24058
  
  S  C   3   0.01108    -0.04612    -0.03206     0.00438    -0.04280    -0.00371
 PX  C   3  -0.12158    -0.04486    -0.02138    -0.03813    -0.19770    -0.07925
 PY  C   3   0.09872    -0.13291    -0.10336    -0.02570    -0.03819    -0.03850
 PZ  C   3   0.02126    -0.12411     0.20109    -0.11170    -0.10855     0.28952
  
  S  C   4   0.05042    -0.01572    -0.02653     0.00191    -0.01473    -0.03292
 PX  C   4   0.18197     0.03671    -0.01002     0.02769    -0.18111    -0.04465
 PY  C   4  -0.03088     0.16517     0.09229    -0.01296    -0.16524    -0.04486
 PZ  C   4   0.02607    -0.12009     0.19464    -0.11284    -0.11195     0.28166
  
  S  C   5  -0.08388    -0.03686     0.02968     0.05851     0.02664     0.03475
 PX  C   5  -0.13515    -0.02478    -0.00080    -0.05060     0.16420     0.02634
 PY  C   5   0.02175     0.27468     0.13674    -0.08600     0.09884    -0.00290
 PZ  C   5   0.01848    -0.06695     0.11330    -0.07142    -0.08978     0.23682
  
  S  C   6  -0.00704    -0.00259    -0.01616    -0.02788    -0.03889    -0.01990
 PX  C   6  -0.18403    -0.08007     0.03221     0.14478    -0.14766    -0.00222
 PY  C   6   0.12287    -0.22947    -0.14311     0.07385    -0.06880    -0.00318
 PZ  C   6   0.01670    -0.05674     0.08246    -0.05213    -0.08971     0.21948
  
  S  C   7   0.07194     0.01786    -0.01294    -0.03919     0.03012    -0.00604
 PX  C   7   0.13671     0.07450     0.03064     0.00887     0.22094     0.07940
 PY  C   7  -0.19369     0.07203     0.00775    -0.19457     0.10004     0.05624
 PZ  C   7   0.02357    -0.13804     0.19953    -0.11032    -0.06791     0.15208
  
  S  C   8   0.01283    -0.04709    -0.01482     0.02855     0.00574     0.02494
 PX  C   8  -0.13182    -0.02155     0.11038     0.18435     0.22870     0.08042
 PY  C   8  -0.02445    -0.16822    -0.16280    -0.08240     0.14816     0.02233
 PZ  C   8   0.02141    -0.14317     0.18971    -0.11588    -0.04937     0.15042
  
  S  C   9  -0.02775     0.01241    -0.02093    -0.03622     0.01420    -0.01032
 PX  C   9   0.12396     0.02401    -0.13435    -0.22426    -0.22137    -0.09604
 PY  C   9   0.03664     0.00671    -0.06852    -0.13993    -0.08343    -0.02763
 PZ  C   9   0.03494    -0.18831     0.24706    -0.15465    -0.02441     0.02506
  
  S  C  10   0.00434     0.00162     0.01318     0.05020     0.00300     0.00545
 PX  C  10   0.08810    -0.12901     0.01601     0.22221    -0.18532    -0.04906
 PY  C  10   0.05845    -0.05170    -0.03386     0.11535    -0.13364    -0.06771
 PZ  C  10   0.03479    -0.19276     0.25014    -0.13809    -0.03682     0.02548
  
  S  C  11  -0.05274    -0.03379     0.03217     0.04154    -0.01017    -0.02922
 PX  C  11  -0.09340     0.12981    -0.03760    -0.21542     0.18634     0.04186
 PY  C  11   0.25457    -0.03444     0.10832     0.21572     0.17816     0.02604
 PZ  C  11   0.02531    -0.14677     0.18455    -0.12563     0.05135    -0.12836
  
  S  H  12  -0.24693     0.06895    -0.09633    -0.23342    -0.06862    -0.00988
  
  S  C  13   0.01182     0.05958     0.02766    -0.05246    -0.01809     0.00228
 PX  C  13  -0.07471    -0.09367    -0.11518    -0.05791     0.24573     0.11673
 PY  C  13  -0.04013     0.05388     0.22151     0.32309     0.06051     0.02521
 PZ  C  13   0.02991    -0.15242     0.19197    -0.11489     0.04062    -0.13517
  
  S  H  14   0.23084    -0.01631     0.00099     0.12870     0.03388    -0.00977
  
  S  H  15  -0.03000    -0.23052    -0.06807     0.16544     0.06038     0.07274
  
  S  H  16  -0.19112    -0.10936    -0.01894     0.02477     0.02612     0.01227
  
  S  H  17   0.04067     0.20784     0.11520    -0.01709     0.01952    -0.00357
  
  S  H  18   0.16057     0.07589    -0.03648    -0.14841     0.12701    -0.00924
  
  S  H  19   0.04119    -0.13849    -0.17047    -0.11783     0.02611    -0.00447
  
  S  H  20   0.01307     0.10453     0.22734     0.25521    -0.07563    -0.02987
  
  S  C  21   0.00118    -0.07723    -0.02070     0.04075    -0.01864    -0.02341
 PX  C  21  -0.02008    -0.00247     0.07483     0.09735     0.13838     0.02704
 PY  C  21  -0.24056    -0.01430    -0.02322    -0.00412     0.02599    -0.02696
 PZ  C  21  -0.00434    -0.10335     0.10644    -0.07784     0.11605    -0.22783
  
  S  C  22   0.00516     0.01355    -0.02174    -0.03853     0.05809     0.02557
 PX  C  22   0.02109     0.17375     0.13528    -0.06572    -0.12860    -0.07248
 PY  C  22   0.24442    -0.04691    -0.11052    -0.04729     0.00016     0.08736
 PZ  C  22   0.00371    -0.09204     0.06985    -0.05264     0.11334    -0.20300
  
  S  C  23   0.01373    -0.01999     0.00691     0.04465     0.04849     0.02898
 PX  C  23  -0.05128    -0.19733    -0.12711     0.04251    -0.12203    -0.06413
 PY  C  23  -0.24930     0.03424     0.12618     0.07037    -0.14122    -0.13742
 PZ  C  23  -0.01135    -0.07793     0.08209    -0.05379     0.09689    -0.20856
  
  S  C  24   0.07924     0.01744    -0.00929    -0.04937    -0.00244    -0.01732
 PX  C  24   0.00346     0.17856     0.12967    -0.01504     0.14273     0.08291
 PY  C  24  -0.09856    -0.01481    -0.13195    -0.09005     0.05612     0.14174
 PZ  C  24   0.00146    -0.09868     0.09607    -0.08489     0.10619    -0.20844
  
  S  H  25   0.18228    -0.01788     0.01654     0.05245     0.00624     0.04372
  
  S  H  26   0.01941     0.17032     0.10571    -0.07730    -0.10564    -0.04323
  
  S  H  27  -0.20989    -0.08715     0.04150     0.09585    -0.15202    -0.14566
  
  S  H  28  -0.03768    -0.07594    -0.15660    -0.08581    -0.01951     0.06858
  
  S  C  29  -0.01321     0.05681     0.05095     0.02705    -0.00424     0.01213
 PX  C  29  -0.01770    -0.04116    -0.10712    -0.08282    -0.16557    -0.03527
 PY  C  29  -0.17254     0.02994    -0.00247    -0.05864    -0.19260    -0.02395
 PZ  C  29   0.02666    -0.16619     0.18787    -0.13388     0.11798    -0.27595
  
  S  C  30  -0.07698    -0.00907    -0.01703    -0.00668     0.00039     0.00646
 PX  C  30   0.03498     0.05589     0.11165     0.07563    -0.23995    -0.13013
 PY  C  30   0.13792    -0.07360    -0.02751     0.06005    -0.02661    -0.07376
 PZ  C  30   0.03629    -0.17060     0.18671    -0.12981     0.10736    -0.27964




    ROOT NO.   31          32          33          34          35          36

           -13.16302   -12.89583   -12.19664   -11.80236   -11.73004   -11.33037
  
  
  S  C   1  -0.02290    -0.00427     0.00589    -0.00325    -0.00107     0.01739
 PX  C   1   0.11763     0.21966    -0.12969    -0.06040     0.02238     0.13425
 PY  C   1  -0.21745     0.12674     0.19430    -0.01845    -0.08048     0.04989
 PZ  C   1   0.04187     0.07091     0.02420     0.32769    -0.00706     0.07951
  
  S  C   2  -0.00716     0.01726    -0.02843     0.01052     0.03164    -0.03275
 PX  C   2  -0.09630    -0.22879     0.08278     0.04412     0.00553    -0.16281
 PY  C   2   0.13325    -0.12337    -0.22232     0.01658     0.12723    -0.10743
 PZ  C   2   0.04320     0.04757     0.02414     0.23629    -0.00949     0.04270
  
  S  C   3  -0.00997    -0.02357     0.01446    -0.00094    -0.00117     0.03512
 PX  C   3  -0.03932     0.17643    -0.12879    -0.04876     0.07878     0.22390
 PY  C   3  -0.06749     0.12693     0.28776    -0.01541    -0.20603     0.09098
 PZ  C   3   0.04924     0.04357     0.01853     0.06901    -0.01276     0.00211
  
  S  C   4  -0.00348     0.02876     0.01035     0.00249     0.00391    -0.01296
 PX  C   4  -0.12272    -0.17497     0.19017     0.05139    -0.06212    -0.16830
 PY  C   4  -0.02052    -0.08977    -0.25384     0.02135     0.21964    -0.09377
 PZ  C   4   0.04487     0.04543     0.01330     0.08015     0.00691    -0.01357
  
  S  C   5  -0.01337    -0.00728    -0.02349     0.00739     0.01892     0.03268
 PX  C   5   0.11540     0.19928    -0.16253    -0.04753     0.04364     0.15718
 PY  C   5  -0.13278     0.15247     0.16889    -0.01656    -0.08969     0.06843
 PZ  C   5   0.04638     0.05236     0.01928     0.26175     0.00243     0.03830
  
  S  C   6  -0.01167     0.00159     0.00146    -0.00273     0.00483    -0.01314
 PX  C   6  -0.17363    -0.20264     0.12745     0.03215    -0.01543    -0.10586
 PY  C   6   0.18512    -0.14916    -0.19488     0.00233     0.09151    -0.07452
 PZ  C   6   0.04852     0.04851     0.01716     0.34702     0.00294     0.06361
  
  S  C   7   0.01097     0.07006    -0.01504    -0.00005     0.04848    -0.01619
 PX  C   7   0.02741    -0.13841     0.11458     0.04950    -0.04504    -0.23957
 PY  C   7  -0.12130    -0.01752    -0.06552     0.02538     0.19082    -0.12030
 PZ  C   7   0.02134     0.01050     0.01256    -0.16438    -0.02648    -0.02301
  
  S  C   8  -0.00630    -0.06451    -0.01852    -0.00973     0.05502     0.01554
 PX  C   8  -0.09059     0.11313    -0.02942    -0.04221     0.07597     0.21915
 PY  C   8   0.12207     0.08447     0.13842    -0.02335    -0.19073     0.08102
 PZ  C   8   0.01260     0.02788     0.01575    -0.15649    -0.00209    -0.04295
  
  S  C   9   0.03903     0.04413    -0.00300     0.00303     0.00566    -0.00650
 PX  C   9   0.10930    -0.05841     0.05453     0.04489    -0.10760    -0.22899
 PY  C   9  -0.24312     0.04988     0.04197     0.05499     0.31934    -0.06234
 PZ  C   9  -0.03173    -0.00672     0.00106    -0.31994     0.01527    -0.07433
  
  S  C  10   0.03434    -0.06143    -0.00504     0.01628    -0.01362     0.00775
 PX  C  10  -0.17199     0.02436     0.02720    -0.02516     0.14943     0.28819
 PY  C  10   0.21504     0.01162     0.00286    -0.02500    -0.29185     0.10288
 PZ  C  10  -0.00654    -0.01747     0.00470    -0.32743    -0.02545    -0.03718
  
  S  C  11  -0.00204     0.08951     0.00563    -0.01637     0.04556     0.01706
 PX  C  11   0.15819     0.03617    -0.01295     0.04130    -0.09801    -0.28170
 PY  C  11  -0.02974     0.12261     0.10976     0.02262     0.17706    -0.10133
 PZ  C  11  -0.01243    -0.04596    -0.00615    -0.13284    -0.02205    -0.02113
  
  S  H  12   0.08794    -0.03948    -0.10229    -0.00174    -0.19954    -0.04179
  
  S  C  13  -0.01185    -0.08254     0.01326    -0.00575     0.05732    -0.00471
 PX  C  13   0.05641    -0.10223     0.09698    -0.05993     0.06262     0.20783
 PY  C  13   0.11977    -0.00413    -0.11571    -0.03296    -0.23944     0.09082
 PZ  C  13  -0.03847    -0.03519    -0.02340    -0.13334    -0.00641    -0.03916
  
  S  H  14   0.12005    -0.01692     0.11404    -0.00098    -0.19245    -0.02648
  
  S  H  15   0.11729    -0.22406    -0.10511     0.03190     0.05971    -0.11359
  
  S  H  16  -0.15612     0.00539     0.22904     0.00631    -0.10756    -0.00257
  
  S  H  17  -0.17234     0.02204     0.22962     0.00696    -0.10550    -0.01070
  
  S  H  18   0.16218     0.20407    -0.12548    -0.03893     0.01469     0.10703
  
  S  H  19   0.13708    -0.00869     0.13079    -0.00610    -0.20281    -0.02441
  
  S  H  20   0.06402     0.00811    -0.14696    -0.00136    -0.24358    -0.03021
  
  S  C  21  -0.02205     0.02220     0.02136     0.00475     0.03339     0.04058
 PX  C  21  -0.08052     0.23817    -0.12611     0.03079    -0.09186    -0.23785
 PY  C  21   0.19929     0.09889     0.12170    -0.01434     0.08737    -0.07117
 PZ  C  21  -0.01119    -0.03526    -0.02287     0.22715    -0.01988     0.04099
  
  S  C  22  -0.00725    -0.00259    -0.00663     0.00838    -0.00528    -0.02375
 PX  C  22   0.12736    -0.22849     0.07446     0.00608     0.03288     0.15615
 PY  C  22  -0.24337    -0.10464    -0.12033    -0.01167    -0.07850     0.08604
 PZ  C  22  -0.03760    -0.02071    -0.04899     0.30234    -0.03954     0.05844
  
  S  C  23  -0.00684     0.01990    -0.00211    -0.01905    -0.00149     0.00170
 PX  C  23  -0.11891     0.22440    -0.06479     0.03352    -0.01978    -0.14435
 PY  C  23   0.24970     0.07596     0.13123    -0.00190     0.08645    -0.03812
 PZ  C  23  -0.02271    -0.04051    -0.04649     0.29669    -0.04047     0.08087
  
  S  C  24  -0.01793    -0.02090     0.02534     0.02569     0.04024    -0.01382
 PX  C  24   0.10343    -0.22087     0.03179    -0.04228    -0.01475     0.16159
 PY  C  24  -0.16835    -0.09690    -0.15802    -0.05091    -0.14502     0.08059
 PZ  C  24  -0.05460    -0.06956    -0.06502     0.21641    -0.05217     0.07873
  
  S  H  25  -0.21421     0.01688    -0.15592     0.00643    -0.11328    -0.01724
  
  S  H  26   0.12344    -0.22430     0.07477    -0.01354     0.03217     0.14847
  
  S  H  27   0.13691     0.19347     0.07056     0.02751     0.05836    -0.11350
  
  S  H  28  -0.19952     0.00221    -0.15163    -0.00857    -0.11753    -0.00892
  
  S  C  29   0.00876    -0.03592    -0.01204     0.00185    -0.01157    -0.01405
 PX  C  29   0.09643    -0.19901     0.14577    -0.04210     0.11285     0.24985
 PY  C  29  -0.10487    -0.08745    -0.21319    -0.01518    -0.23962     0.09719
 PZ  C  29  -0.02583    -0.07268    -0.01491     0.07147    -0.01026     0.02506
  
  S  C  30   0.01582     0.04103     0.00201    -0.00313     0.00145     0.00545
 PX  C  30  -0.03606     0.14611    -0.11290     0.05564    -0.10444    -0.20680
 PY  C  30   0.14028     0.11854     0.23462     0.01961     0.24714    -0.06508
 PZ  C  30  -0.04379    -0.06381    -0.02619     0.07111    -0.00372     0.01444




    ROOT NO.   37          38          39          40          41          42

           -10.74267    -9.85734    -9.65523    -8.26438    -8.08357    -6.62869
  
  
  S  C   1  -0.00117     0.00195     0.00213    -0.00175    -0.00281    -0.00349
 PX  C   1  -0.00446     0.01701     0.00969    -0.00608    -0.01886    -0.01061
 PY  C   1  -0.00582     0.01070     0.00882    -0.00667    -0.01249    -0.00748
 PZ  C   1   0.06564    -0.29773    -0.19192     0.16134     0.34567     0.19233
  
  S  C   2   0.00924    -0.00161    -0.01194     0.01092     0.00491     0.00895
 PX  C   2  -0.00058    -0.00501     0.00460    -0.00980     0.00569    -0.00221
 PY  C   2   0.00393    -0.00485     0.00036    -0.00533     0.00708    -0.00022
 PZ  C   2   0.19386    -0.04622    -0.33407     0.37654     0.07185     0.22928
  
  S  C   3  -0.00090     0.00175     0.00193     0.00086    -0.00420    -0.00243
 PX  C   3   0.00050     0.00346    -0.00035     0.00692    -0.00514    -0.00226
 PY  C   3  -0.00623     0.00908     0.00020     0.00564    -0.01335    -0.00015
 PZ  C   3   0.23618     0.26056    -0.21960     0.15567    -0.32457    -0.12028
  
  S  C   4   0.01297    -0.00938    -0.01357     0.00002     0.01968    -0.00436
 PX  C   4   0.00267     0.00110    -0.00000    -0.00404     0.00467    -0.00219
 PY  C   4   0.01609    -0.00576    -0.00774    -0.00269     0.01577    -0.00327
 PZ  C   4  -0.20993     0.22435     0.25699     0.01436    -0.39103     0.10438
  
  S  C   5  -0.00921    -0.00769     0.01330    -0.01463    -0.00833    -0.00993
 PX  C   5  -0.00172    -0.00101     0.00047     0.00215    -0.00691     0.00075
 PY  C   5  -0.00399     0.00157     0.00126     0.00095    -0.00312     0.00058
 PZ  C   5  -0.20227    -0.14217     0.29890    -0.35267    -0.12025    -0.23077
  
  S  C   6   0.00212     0.00571    -0.00210     0.00474    -0.00095     0.00378
 PX  C   6   0.00419     0.00597    -0.00408     0.00648     0.00031     0.00508
 PY  C   6   0.00868     0.01045    -0.00802     0.01193    -0.00152     0.00822
 PZ  C   6  -0.10514    -0.34633     0.11933    -0.27357     0.22720    -0.16254
  
  S  C   7   0.00116     0.00125     0.00020    -0.00224     0.00103     0.00544
 PX  C   7   0.00362    -0.00313    -0.00215    -0.00762     0.00762     0.00379
 PY  C   7   0.01747     0.00318    -0.00350    -0.01089     0.00484    -0.00114
 PZ  C   7   0.36089     0.19490    -0.18070    -0.21852    -0.02793    -0.35962
  
  S  C   8  -0.01373     0.00704     0.00963     0.00885    -0.00118     0.01423
 PX  C   8   0.00396    -0.01204    -0.00477    -0.00119    -0.00488    -0.00922
 PY  C   8   0.00560    -0.01058    -0.01224    -0.00568     0.00048    -0.01514
 PZ  C   8  -0.34620     0.19935     0.24235     0.19351     0.04034     0.35250
  
  S  C   9   0.00185     0.00162     0.00044    -0.00565     0.00221     0.00167
 PX  C   9   0.00171     0.01072     0.00150    -0.00279     0.00924     0.00846
 PY  C   9   0.03248     0.01265    -0.00118    -0.01137    -0.01985     0.00343
 PZ  C   9  -0.28626     0.03238     0.03406     0.13150     0.39524     0.02471
  
  S  C  10  -0.01446     0.00282     0.00143     0.01679    -0.00945    -0.00554
 PX  C  10  -0.01021     0.00740     0.00567     0.01941    -0.01402    -0.00630
 PY  C  10  -0.02782    -0.00442     0.00293     0.01799    -0.00813     0.00045
 PZ  C  10   0.27504    -0.00711     0.00627    -0.31020     0.28530    -0.01258
  
  S  C  11   0.02225    -0.01954     0.00893    -0.01807    -0.00667     0.03259
 PX  C  11  -0.00778     0.00266    -0.01173    -0.00120     0.00221    -0.00437
 PY  C  11   0.00577     0.00878    -0.00905    -0.00832     0.00129     0.00093
 PZ  C  11   0.31637    -0.26517     0.18913    -0.18323    -0.05822     0.39067
  
  S  H  12  -0.01668    -0.00524    -0.00386     0.01126    -0.00059    -0.01287
  
  S  C  13  -0.01564    -0.00782    -0.01471     0.00768    -0.00004    -0.01981
 PX  C  13  -0.01802    -0.01069    -0.01029     0.00472    -0.00443    -0.00983
 PY  C  13  -0.00950    -0.01058     0.00613     0.00274    -0.00254     0.00528
 PZ  C  13  -0.34015    -0.17375    -0.23899     0.19435     0.06256    -0.38347
  
  S  H  14  -0.00867    -0.00137    -0.00111     0.00171    -0.00028    -0.00184
  
  S  H  15   0.00400    -0.00549    -0.00375     0.00123     0.00650     0.00350
  
  S  H  16  -0.00585     0.00229     0.00636    -0.00643    -0.00483    -0.00442
  
  S  H  17  -0.00114     0.00306    -0.00253     0.00488     0.00009     0.00398
  
  S  H  18  -0.00261    -0.00036     0.00226    -0.00235    -0.00334    -0.00270
  
  S  H  19  -0.00161    -0.00121    -0.00599    -0.00202     0.00101    -0.00725
  
  S  H  20  -0.00194    -0.00966     0.00870     0.00281    -0.00302     0.00845
  
  S  C  21   0.01146    -0.00042     0.02171     0.02121    -0.00101    -0.01235
 PX  C  21   0.00418    -0.01249    -0.01052    -0.00885    -0.00405     0.00272
 PY  C  21  -0.01891    -0.00257    -0.03234    -0.02390    -0.00347     0.01395
 PZ  C  21   0.19807     0.07624     0.36188     0.32857     0.06773    -0.24127
  
  S  C  22   0.00186     0.01205     0.00258    -0.00131     0.01106    -0.00299
 PX  C  22   0.00450     0.02740     0.02129     0.01460     0.01707    -0.01474
 PY  C  22   0.00507    -0.00585     0.00881     0.00443    -0.00376     0.00182
 PZ  C  22   0.10465     0.34734     0.23210     0.14372     0.28161    -0.20455
  
  S  C  23   0.00031    -0.02006     0.00358     0.01275    -0.00766    -0.01100
 PX  C  23   0.00601    -0.00183    -0.00600    -0.00926    -0.00589     0.00926
 PY  C  23  -0.00129    -0.01286     0.00020     0.01039    -0.00776    -0.00991
 PZ  C  23  -0.06673     0.39573    -0.12838    -0.27491     0.18169     0.20168
  
  S  C  24  -0.00751     0.01853    -0.02052    -0.02179    -0.00390     0.01333
 PX  C  24  -0.00520    -0.00028     0.00899     0.00785     0.00758    -0.00382
 PY  C  24   0.01485    -0.02800     0.03563     0.03121     0.00659    -0.01655
 PZ  C  24  -0.17971     0.17280    -0.33232    -0.33121    -0.08388     0.24563
  
  S  H  25   0.00302    -0.01084    -0.00185    -0.00545    -0.00732     0.00861
  
  S  H  26  -0.00343     0.00676     0.00453     0.00280    -0.00060     0.00130
  
  S  H  27  -0.00236     0.00479    -0.01186    -0.01180    -0.00214     0.00938
  
  S  H  28   0.00902    -0.01669     0.01369     0.01140    -0.00375    -0.00360
  
  S  C  29  -0.00749     0.01196    -0.01018    -0.00463     0.01056    -0.01306
 PX  C  29  -0.01121     0.01578     0.00020    -0.00261     0.00937     0.00366
 PY  C  29   0.00071    -0.02586     0.01588     0.01508    -0.01513     0.00266
 PZ  C  29   0.19824    -0.31142     0.20176     0.12890    -0.29249     0.14838
  
  S  C  30   0.01957     0.01623     0.02649     0.00018     0.02158     0.01227
 PX  C  30   0.01137     0.00087     0.00695     0.00255     0.00141    -0.00096
 PY  C  30   0.01304     0.03458     0.00548    -0.01214     0.02420     0.00819
 PZ  C  30  -0.22250    -0.23086    -0.29711     0.03235    -0.29865    -0.15223




    ROOT NO.   43          44          45          46          47          48

            -1.11068     0.19574     0.29242     1.22044     1.36177     1.88077
  
  
  S  C   1  -0.00134     0.00178    -0.00705    -0.00463    -0.00184    -0.00304
 PX  C   1   0.00485     0.01135    -0.00606     0.00202    -0.00966    -0.00202
 PY  C   1   0.00561     0.01146    -0.00050     0.00754    -0.00780     0.00305
 PZ  C   1  -0.19433    -0.37403     0.01029    -0.23429     0.26932    -0.06503
  
  S  C   2   0.00954     0.01088     0.01646     0.02188    -0.00166     0.01399
 PX  C   2  -0.00474    -0.00260    -0.00476    -0.00420    -0.00224    -0.00213
 PY  C   2  -0.00306    -0.00177    -0.00272    -0.00319    -0.00217    -0.00186
 PZ  C   2   0.23404     0.21831     0.28897     0.34684    -0.00220     0.19021
  
  S  C   3  -0.00236    -0.01055    -0.00349    -0.01277     0.01054    -0.00619
 PX  C   3  -0.00065     0.00519    -0.00298     0.00765    -0.00170     0.00694
 PY  C   3   0.00689    -0.00062     0.00545    -0.00043     0.00204    -0.00014
 PZ  C   3   0.11918     0.23681    -0.28086    -0.18924    -0.29613    -0.23550
  
  S  C   4  -0.00632     0.02383    -0.01425     0.01241    -0.01861     0.00001
 PX  C   4   0.00445     0.00857     0.00581     0.00769     0.00435     0.00458
 PY  C   4  -0.00187     0.01096    -0.00447     0.00201    -0.00141    -0.00305
 PZ  C   4   0.11190    -0.34709     0.17935    -0.29990     0.18236    -0.21419
  
  S  C   5   0.01342     0.00495     0.01795     0.01235     0.01836     0.01518
 PX  C   5   0.00147    -0.01115     0.00259    -0.00917     0.00431    -0.00393
 PY  C   5  -0.00056    -0.00169     0.00046     0.00028     0.00140     0.00141
 PZ  C   5   0.23120     0.24108     0.26024     0.29452     0.17922     0.19988
  
  S  C   6  -0.00165    -0.00381     0.00032    -0.00294     0.00014    -0.00442
 PX  C   6   0.00025    -0.00285     0.00326    -0.00025     0.00314    -0.00020
 PY  C   6   0.00053    -0.00488     0.00366    -0.00260     0.00483    -0.00228
 PZ  C   6  -0.17421     0.09240    -0.34174    -0.08506    -0.35865    -0.10483
  
  S  C   7   0.00505     0.00198     0.01213    -0.00019    -0.01076    -0.01429
 PX  C   7   0.00117    -0.00414     0.00543    -0.00580    -0.00019    -0.00780
 PY  C   7  -0.00348    -0.00342     0.00632    -0.00007    -0.00017    -0.00337
 PZ  C   7  -0.35902    -0.11943    -0.18111     0.14164     0.22027     0.35055
  
  S  C   8  -0.01391    -0.01535    -0.00545     0.00791    -0.00008     0.02474
 PX  C   8   0.00607     0.00594    -0.00227    -0.00133    -0.00122    -0.00014
 PY  C   8   0.01152     0.01037     0.00140    -0.00239    -0.00109    -0.00647
 PZ  C   8  -0.35633    -0.11586    -0.16678     0.25492    -0.15005     0.34255
  
  S  C   9   0.00106     0.00336     0.01280    -0.00280    -0.00261    -0.02914
 PX  C   9  -0.00562     0.00046     0.00370     0.00169    -0.00233    -0.00278
 PY  C   9  -0.00753    -0.01197    -0.00450     0.00272     0.00166     0.01433
 PZ  C   9   0.02512     0.41531    -0.03363    -0.01778     0.02628    -0.29606
  
  S  C  10  -0.00976     0.00758    -0.02679     0.00524     0.01217     0.02179
 PX  C  10  -0.00634     0.00740    -0.00717     0.00612     0.00497    -0.00878
 PY  C  10   0.00254     0.00384    -0.01073     0.00037    -0.00243     0.01162
 PZ  C  10   0.01556    -0.13058     0.40938     0.01807     0.00154    -0.28864
  
  S  C  11   0.03190    -0.00452    -0.00745    -0.02399    -0.01887     0.03162
 PX  C  11  -0.01205     0.00896    -0.00898    -0.00130     0.01220     0.00734
 PY  C  11  -0.00588     0.00853    -0.00154    -0.00167     0.01296    -0.00495
 PZ  C  11   0.37497    -0.11832    -0.13305    -0.16240    -0.27208     0.32425
  
  S  H  12  -0.01591     0.00402     0.00584     0.01513     0.01120    -0.02434
  
  S  C  13   0.01523    -0.01877    -0.00506    -0.00195    -0.00287     0.02582
 PX  C  13   0.00296    -0.01085     0.00498     0.00902    -0.00978    -0.01026
 PY  C  13  -0.00454     0.00130     0.00473     0.00177    -0.00427    -0.00741
 PZ  C  13   0.37098    -0.11510    -0.14145    -0.27325     0.13377     0.33464
  
  S  H  14  -0.00063    -0.00061    -0.00507     0.00044     0.00692     0.01182
  
  S  H  15  -0.00037    -0.00160     0.00307     0.00212    -0.00044     0.00131
  
  S  H  16  -0.00403    -0.00690    -0.00832    -0.01428    -0.00010    -0.01015
  
  S  H  17  -0.00584    -0.00519    -0.00968    -0.01046    -0.01142    -0.01152
  
  S  H  18   0.00101     0.00117    -0.00078     0.00050    -0.00120     0.00178
  
  S  H  19   0.00916     0.00704     0.00456    -0.00659     0.00001    -0.01636
  
  S  H  20  -0.00999     0.00889     0.00425     0.00561     0.00058    -0.01980
  
  S  C  21  -0.02023     0.02684     0.02178    -0.04467     0.01187     0.03005
 PX  C  21  -0.00327    -0.00185     0.00605    -0.00092    -0.00319    -0.00002
 PY  C  21   0.01143    -0.01047    -0.01409     0.01825    -0.00052    -0.01053
 PZ  C  21  -0.25092     0.22345     0.27495    -0.34520     0.04911     0.17989
  
  S  C  22   0.01423    -0.01881    -0.01169     0.02751    -0.01299    -0.01740
 PX  C  22   0.00852    -0.01532     0.00368     0.00824    -0.01953    -0.00054
 PY  C  22  -0.00561     0.01227     0.00179    -0.01372     0.01332     0.00689
 PZ  C  22   0.20459    -0.32141    -0.01692     0.25462    -0.32982    -0.08206
  
  S  C  23  -0.00652    -0.00115     0.01255    -0.00833    -0.00955     0.00710
 PX  C  23  -0.00918     0.00766     0.00788    -0.00766    -0.00416     0.00478
 PY  C  23  -0.00819    -0.00733     0.01546     0.00362    -0.02667    -0.00048
 PZ  C  23   0.21541     0.03655    -0.33024     0.06420     0.40882    -0.07006
  
  S  C  24  -0.01866     0.00449     0.02364    -0.00522    -0.02718     0.00377
 PX  C  24   0.01001     0.00230    -0.01261     0.00052     0.01404    -0.00228
 PY  C  24   0.02229    -0.00594    -0.02487     0.00734     0.02275    -0.00422
 PZ  C  24  -0.24754     0.22697     0.28187    -0.28925    -0.20893     0.17392
  
  S  H  25   0.00900    -0.01294    -0.01609     0.02944    -0.00213    -0.02162
  
  S  H  26  -0.00476     0.01128     0.00160    -0.01483     0.01363     0.00922
  
  S  H  27   0.00166     0.00235    -0.00822     0.00458     0.00986    -0.00441
  
  S  H  28   0.00662    -0.00203    -0.01416     0.00666     0.01796    -0.00491
  
  S  C  29   0.00041    -0.02537     0.01207     0.02750    -0.02168    -0.02239
 PX  C  29   0.01707    -0.00915    -0.00506     0.00275    -0.01254     0.00212
 PY  C  29   0.00222    -0.00595    -0.00100     0.00615    -0.01095     0.00002
 PZ  C  29  -0.14423     0.19398    -0.25311     0.17625     0.33715    -0.22148
  
  S  C  30   0.01210     0.03149    -0.02005    -0.03106     0.03335     0.01507
 PX  C  30   0.00552     0.00032    -0.00685    -0.00797     0.01042     0.01342
 PY  C  30   0.01261     0.00739    -0.00961    -0.00866     0.01127     0.00390
 PZ  C  30  -0.15105    -0.27230     0.13622     0.32578    -0.19532    -0.21415




    ROOT NO.   49          50          51          52          53          54

             2.39776     2.48719     2.84940     3.11450     3.32231     3.42142
  
  
  S  C   1   0.05910    -0.12653     0.16895     0.01359     0.22001    -0.18066
 PX  C   1   0.00493    -0.02756     0.01551    -0.00958    -0.01451    -0.08417
 PY  C   1  -0.00319    -0.02246     0.02075    -0.00604     0.02338     0.05472
 PZ  C   1   0.30711     0.12864     0.00165     0.25329     0.00236    -0.00790
  
  S  C   2  -0.08566     0.16940    -0.18916    -0.00598    -0.14663     0.25154
 PX  C   2  -0.00563     0.02023     0.00282     0.01267     0.05892    -0.00274
 PY  C   2  -0.02058     0.05599    -0.04211     0.01251     0.00373     0.02522
 PZ  C   2  -0.21205    -0.09830     0.00580    -0.26710     0.00686    -0.00711
  
  S  C   3   0.11971    -0.27294     0.23880    -0.02553     0.04953    -0.17709
 PX  C   3  -0.00277     0.01509    -0.06272    -0.00865    -0.09357    -0.08245
 PY  C   3   0.01225    -0.05525     0.03046    -0.01065    -0.02511     0.14850
 PZ  C   3   0.06423     0.01816     0.01609     0.31848     0.00871    -0.02056
  
  S  C   4  -0.10992     0.30651    -0.24961     0.02209    -0.05652    -0.22315
 PX  C   4  -0.00055     0.02162     0.02581     0.01360     0.07741     0.07744
 PY  C   4   0.01992    -0.02140     0.06594    -0.00214     0.05750    -0.12734
 PZ  C   4  -0.06469    -0.00627    -0.03550    -0.30367    -0.02490     0.01632
  
  S  C   5   0.09559    -0.21607     0.22608     0.01592     0.16372     0.23690
 PX  C   5   0.02144    -0.07394     0.03866    -0.01512    -0.03528     0.05889
 PY  C   5   0.00057     0.00090    -0.00931    -0.00112    -0.03401     0.02468
 PZ  C   5   0.22247     0.10758    -0.00513     0.26084    -0.00393    -0.03719
  
  S  C   6  -0.05392     0.14214    -0.17374    -0.01345    -0.21522    -0.07847
 PX  C   6  -0.01200     0.03536    -0.03427     0.00059    -0.02415     0.00983
 PY  C   6  -0.00176     0.02543    -0.00890     0.00441     0.02662    -0.12423
 PZ  C   6  -0.31757    -0.13259    -0.00394    -0.25709    -0.00485     0.01512
  
  S  C   7  -0.11289     0.22911    -0.08690     0.03606     0.16719     0.26632
 PX  C   7   0.01281    -0.04121     0.09691     0.00333     0.09465     0.00115
 PY  C   7  -0.01481     0.02302     0.03809     0.00451     0.06475     0.02036
 PZ  C   7   0.14496     0.07584    -0.01196    -0.15201    -0.00269     0.03160
  
  S  C   8   0.07573    -0.24920     0.07837    -0.00321    -0.14187     0.23113
 PX  C   8   0.00701    -0.00664    -0.08873     0.00529    -0.11620    -0.01133
 PY  C   8  -0.01663     0.05854    -0.06555     0.00510    -0.03530    -0.03593
 PZ  C   8  -0.16195    -0.03567     0.00685     0.14159     0.04055    -0.04759
  
  S  C   9  -0.09144     0.24741     0.08448    -0.00107     0.33226    -0.14381
 PX  C   9  -0.00860     0.00483     0.08109    -0.00183     0.05086     0.07094
 PY  C   9   0.00696    -0.01260     0.03642    -0.02143    -0.06306    -0.14412
 PZ  C   9   0.31928     0.10752     0.00204    -0.00226    -0.04796     0.03775
  
  S  C  10   0.11218    -0.21252    -0.06935    -0.03523    -0.32287    -0.23439
 PX  C  10  -0.00261     0.02703    -0.05763    -0.00439     0.04730    -0.06775
 PY  C  10   0.00768    -0.01512    -0.05624     0.00877    -0.06815     0.11274
 PZ  C  10  -0.30414    -0.13667     0.00310     0.00609     0.00127    -0.03932
  
  S  C  11  -0.06675     0.16962     0.15022     0.01901     0.12724     0.24998
 PX  C  11   0.02096    -0.03083     0.03587    -0.01719    -0.11002    -0.04182
 PY  C  11  -0.01156     0.02427     0.05610    -0.01462    -0.02548     0.01501
 PZ  C  11   0.11774     0.02353    -0.01405     0.15076    -0.03454    -0.03643
  
  S  H  12   0.02961    -0.08939    -0.08679    -0.00601    -0.08152    -0.10857
  
  S  C  13   0.06556    -0.22248    -0.18780     0.03638    -0.17167     0.21353
 PX  C  13  -0.00456    -0.00118    -0.06986     0.02693     0.08997     0.00133
 PY  C  13  -0.01484     0.03987    -0.00944     0.00592     0.06779    -0.01512
 PZ  C  13  -0.12096    -0.02694    -0.01609    -0.15855     0.05630    -0.02411
  
  S  H  14   0.06664    -0.13994     0.05781    -0.02319    -0.12247    -0.12946
  
  S  H  15  -0.04116     0.08227    -0.11086    -0.01025    -0.14415     0.13041
  
  S  H  16   0.04546    -0.09454     0.11278     0.00614     0.09704    -0.12444
  
  S  H  17  -0.06119     0.12594    -0.14773    -0.01456    -0.11825    -0.12731
  
  S  H  18   0.03069    -0.09016     0.10507     0.00573     0.12971     0.06439
  
  S  H  19  -0.04009     0.13146    -0.04999     0.00519     0.09006    -0.09592
  
  S  H  20  -0.03679     0.11886     0.11250    -0.01351     0.11624    -0.08839
  
  S  C  21  -0.08182     0.10842     0.23872     0.04599    -0.18195     0.18457
 PX  C  21   0.00780    -0.04341    -0.03497     0.02298    -0.05341    -0.03645
 PY  C  21   0.00564     0.01529     0.03258    -0.01132    -0.04918     0.00476
 PZ  C  21  -0.21580    -0.11200    -0.03756     0.24188     0.01980    -0.05139
  
  S  C  22   0.06838    -0.08166    -0.22372    -0.04818     0.26707    -0.10969
 PX  C  22   0.00347     0.03299     0.05173    -0.01141    -0.03759     0.00134
 PY  C  22  -0.01945    -0.00298    -0.00893     0.02237     0.03965     0.08026
 PZ  C  22   0.28784     0.13274     0.02966    -0.22261    -0.01676     0.04264
  
  S  C  23  -0.04179     0.10644     0.24520    -0.00364    -0.27458    -0.08513
 PX  C  23   0.00819    -0.02402    -0.02537     0.01592    -0.02396     0.06169
 PY  C  23   0.02910    -0.00033    -0.02623    -0.02794     0.03529    -0.05151
 PZ  C  23  -0.29432    -0.11358     0.00781     0.22619    -0.01731    -0.02560
  
  S  C  24   0.06465    -0.13891    -0.26556     0.03563     0.16724     0.16609
 PX  C  24  -0.00762     0.01843    -0.00442    -0.01637     0.08066    -0.02283
 PY  C  24  -0.02574     0.04153     0.05407    -0.00891     0.01186    -0.03211
 PZ  C  24   0.21691     0.09398     0.00569    -0.24958     0.00533    -0.00246
  
  S  H  25   0.04815    -0.06185    -0.15103    -0.03193     0.13084    -0.09204
  
  S  H  26  -0.04443     0.04612     0.12816     0.03227    -0.15289     0.08046
  
  S  H  27   0.02252    -0.07203    -0.15814     0.00714     0.17707     0.07013
  
  S  H  28  -0.03896     0.07315     0.15741    -0.01542    -0.11397    -0.07914
  
  S  C  29   0.07013    -0.17657    -0.26302     0.02760     0.04347    -0.16921
 PX  C  29   0.00372     0.03359    -0.00699    -0.02116     0.08208    -0.03428
 PY  C  29   0.00119    -0.01374    -0.05629     0.03341     0.04600     0.12123
 PZ  C  29   0.09078     0.03196    -0.02411    -0.31437     0.02796     0.02920
  
  S  C  30  -0.06369     0.20923     0.29244    -0.08607    -0.02919    -0.15338
 PX  C  30  -0.00251    -0.02039     0.04391    -0.00322    -0.10141     0.08060
 PY  C  30   0.00872    -0.01900    -0.01225    -0.01549    -0.03315    -0.10348
 PZ  C  30  -0.09046    -0.00729     0.06682     0.30727    -0.04524    -0.03218




    ROOT NO.   55          56          57          58          59          60

             3.60829     3.63686     3.76517     3.87750     4.20040     4.27176
  
  
  S  C   1  -0.03786     0.37383    -0.17237     0.07620     0.07335     0.02301
 PX  C   1  -0.00925    -0.06214     0.03663     0.12080     0.11141     0.01205
 PY  C   1   0.00021     0.02857    -0.01077    -0.07324    -0.03413    -0.02520
 PZ  C   1   0.12039    -0.00211     0.00707     0.00097    -0.00038    -0.00279
  
  S  C   2   0.03691    -0.09583     0.00862    -0.27110    -0.26540    -0.02846
 PX  C   2  -0.00243     0.16969    -0.09195    -0.03752    -0.00587    -0.00239
 PY  C   2   0.00753     0.08447    -0.05504    -0.01287     0.05574    -0.00744
 PZ  C   2  -0.16166     0.01461    -0.01405     0.01638     0.02545     0.00386
  
  S  C   3  -0.03344    -0.24178     0.16705     0.21377     0.00402     0.07803
 PX  C   3   0.00210    -0.02099    -0.03892    -0.00836    -0.17464     0.04555
 PY  C   3   0.01361    -0.12400     0.06946    -0.10940    -0.05474    -0.03318
 PZ  C   3   0.27113    -0.00783     0.02191     0.00707    -0.01510    -0.00372
  
  S  C   4  -0.00632     0.24773    -0.17195     0.06107    -0.06691     0.04188
 PX  C   4   0.00299     0.08048    -0.01322    -0.14454    -0.16091    -0.00063
 PY  C   4  -0.02537    -0.05953     0.07144     0.09354    -0.11003     0.08692
 PZ  C   4  -0.26239     0.02494    -0.04026    -0.01524    -0.00272     0.00679
  
  S  C   5   0.01327     0.03392     0.03669    -0.27156    -0.25835    -0.01593
 PX  C   5   0.00027    -0.14938     0.08192     0.04470     0.08300     0.00554
 PY  C   5   0.00759    -0.09820     0.05502    -0.00622    -0.04963     0.01163
 PZ  C   5   0.15218    -0.01235     0.01359     0.03326     0.02407    -0.00089
  
  S  C   6   0.01130    -0.33267     0.14720     0.18988     0.09083     0.04456
 PX  C   6   0.00387    -0.01017    -0.00178    -0.01054     0.01825    -0.01855
 PY  C   6  -0.01500     0.10953    -0.06399     0.10641     0.10584     0.01319
 PZ  C   6  -0.12111     0.00141    -0.00753    -0.00614    -0.00177     0.00193
  
  S  C   7   0.00967     0.15101     0.05019    -0.10143     0.32822    -0.13513
 PX  C   7  -0.01594    -0.07746     0.10596     0.09522     0.06730     0.03932
 PY  C   7  -0.01539    -0.03445     0.05635     0.05827    -0.04981     0.07455
 PZ  C   7  -0.26857    -0.00473    -0.01317    -0.01959     0.02561    -0.00230
  
  S  C   8   0.06901    -0.10251    -0.05338    -0.05641     0.35153    -0.17687
 PX  C   8   0.01317     0.08685    -0.12829     0.02232    -0.01689     0.03657
 PY  C   8   0.00262     0.06051    -0.05507     0.01437     0.05220    -0.01692
 PZ  C   8   0.25676     0.01349     0.03196     0.02607    -0.03386     0.00782
  
  S  C   9  -0.07772    -0.08265     0.27730     0.03495    -0.12157    -0.02081
 PX  C   9   0.01216    -0.06883     0.03414    -0.03342     0.13546    -0.09896
 PY  C   9   0.01676    -0.04148    -0.07142    -0.06206    -0.07245    -0.16278
 PZ  C   9  -0.35094    -0.02593    -0.04444    -0.03683     0.02403     0.00334
  
  S  C  10   0.03749     0.03090    -0.23055    -0.07466    -0.12496    -0.12984
 PX  C  10  -0.01441     0.03075     0.09791    -0.07788     0.01553    -0.15328
 PY  C  10   0.02074     0.06539    -0.07477    -0.04923     0.14592    -0.03411
 PZ  C  10   0.35604     0.02841     0.00807     0.03296    -0.02886    -0.00891
  
  S  C  11  -0.01119    -0.08699    -0.11557     0.14755     0.02732     0.35748
 PX  C  11   0.02127    -0.01072    -0.15498     0.02776    -0.03439    -0.01075
 PY  C  11   0.02472    -0.02670    -0.08827     0.02791    -0.01791    -0.04944
 PZ  C  11  -0.25102    -0.02640    -0.02093    -0.05727     0.01246    -0.04663
  
  S  H  12   0.00995     0.07100     0.07599    -0.07321    -0.00659    -0.29736
  
  S  C  13   0.01965     0.17390    -0.01899     0.09114     0.03558     0.36546
 PX  C  13  -0.04867     0.02866     0.13984     0.06212    -0.04004    -0.04679
 PY  C  13  -0.02061     0.00599     0.07736     0.03695    -0.01670     0.09659
 PZ  C  13   0.25251     0.02498     0.05509     0.02875    -0.01821    -0.03379
  
  S  H  14  -0.00423    -0.11709    -0.04713     0.06341    -0.29267     0.14967
  
  S  H  15   0.02572    -0.24710     0.11503    -0.05045    -0.00665    -0.03220
  
  S  H  16  -0.01976     0.06332    -0.00258     0.17489     0.24066     0.00179
  
  S  H  17  -0.00768    -0.02081    -0.03367     0.18831     0.25575    -0.01004
  
  S  H  18  -0.00625     0.20884    -0.09545    -0.12427    -0.01853    -0.04714
  
  S  H  19  -0.04594     0.08018     0.03093     0.02366    -0.28869     0.17138
  
  S  H  20  -0.01857    -0.11856     0.00555    -0.03576    -0.00973    -0.34142
  
  S  C  21  -0.03602     0.09499    -0.05572     0.30687    -0.14949    -0.21866
 PX  C  21  -0.03643     0.09703     0.17986    -0.00136    -0.02730    -0.03838
 PY  C  21   0.00449     0.04753     0.06244    -0.00645     0.01108     0.02869
 PZ  C  21  -0.14343    -0.05172    -0.02426    -0.07752     0.03117     0.03575
  
  S  C  22   0.05410    -0.22890    -0.22835    -0.16035     0.07212     0.05301
 PX  C  22   0.00495     0.01677     0.01338    -0.00087    -0.00108    -0.02583
 PY  C  22  -0.01193    -0.03512    -0.10808     0.14401    -0.07294    -0.10082
 PZ  C  22   0.10623     0.04341     0.02534     0.05264    -0.01767    -0.01142
  
  S  C  23  -0.01359     0.19190     0.29767    -0.15193     0.07057     0.08168
 PX  C  23  -0.02475     0.06733     0.07274     0.11104    -0.05878    -0.08949
 PY  C  23   0.02092    -0.03664    -0.01310    -0.08801     0.04212     0.03034
 PZ  C  23  -0.11157    -0.01911    -0.00615    -0.03284     0.01011     0.00569
  
  S  C  24  -0.05020     0.01593     0.00095     0.30671    -0.15397    -0.22704
 PX  C  24   0.02517    -0.11070    -0.16267    -0.00964    -0.00517    -0.01558
 PY  C  24   0.01226    -0.05248    -0.08046     0.00082    -0.02688    -0.06430
 PZ  C  24   0.15512     0.02895     0.03041    -0.00501     0.00712     0.01609
  
  S  H  25   0.03057    -0.06916     0.02173    -0.20158     0.11950     0.21045
  
  S  H  26  -0.03220     0.13412     0.12614     0.10309    -0.03800     0.00859
  
  S  H  27   0.00985    -0.12829    -0.21259     0.10514    -0.03987    -0.01087
  
  S  H  28   0.03254    -0.00628    -0.01659    -0.19904     0.12022     0.21651
  
  S  C  29  -0.05563     0.11816     0.36566    -0.16374     0.03257    -0.04034
 PX  C  29   0.02119    -0.07768    -0.04670    -0.11149     0.06894     0.12989
 PY  C  29  -0.03544     0.03968     0.05719     0.09722    -0.00681     0.12357
 PZ  C  29   0.26788     0.06510     0.07405     0.05457    -0.01682     0.00065
  
  S  C  30   0.08966    -0.18542    -0.27613    -0.16202     0.03825    -0.06204
 PX  C  30   0.03272     0.03196    -0.07824     0.00676     0.04000     0.18026
 PY  C  30   0.00881     0.03710     0.13013    -0.15624     0.06417     0.04729
 PZ  C  30  -0.26312    -0.07522    -0.09692    -0.06561     0.02023     0.00476




    ROOT NO.   61          62          63          64          65          66

             5.22496     5.34201     5.47977     5.67599     6.13701     6.42332
  
  
  S  C   1   0.03714    -0.27716     0.06227    -0.10018    -0.04948    -0.01303
 PX  C   1  -0.11921     0.10002    -0.06808     0.15784     0.12075     0.04270
 PY  C   1   0.06847     0.29638    -0.03376     0.03508     0.01992     0.00642
 PZ  C   1   0.00468     0.01242    -0.00120     0.00171     0.00209     0.00091
  
  S  C   2   0.15414    -0.12500     0.08496    -0.18545    -0.13294    -0.04596
 PX  C   2   0.05148    -0.19338     0.05320    -0.09018    -0.04947    -0.01501
 PY  C   2  -0.02500     0.06926    -0.04259     0.13233     0.19752     0.11205
 PZ  C   2  -0.01406     0.00386    -0.00607     0.01420     0.01088     0.00415
  
  S  C   3  -0.04355     0.05162    -0.00446    -0.06294    -0.16767    -0.11387
 PX  C   3   0.15092    -0.00200     0.03514    -0.05041     0.08346     0.07261
 PY  C   3   0.04482    -0.06216     0.04651    -0.12660    -0.17011    -0.08968
 PZ  C   3   0.00708     0.00085     0.00167    -0.00270    -0.00024     0.00018
  
  S  C   4   0.02690     0.01561    -0.01824     0.08041     0.15653     0.08788
 PX  C   4  -0.12324    -0.00544    -0.04306     0.11421     0.08522     0.04017
 PY  C   4  -0.09491     0.08560    -0.03297    -0.01004    -0.17149    -0.14249
 PZ  C   4  -0.00431    -0.00245    -0.00307     0.00988     0.01379     0.00733
  
  S  C   5  -0.17456    -0.04867    -0.05145     0.14373     0.10525     0.04090
 PX  C   5   0.00393    -0.02897     0.02006    -0.08184    -0.13860    -0.08402
 PY  C   5  -0.17836    -0.20308    -0.03021     0.13246     0.14888     0.07965
 PZ  C   5   0.01717     0.00708     0.00490    -0.01459    -0.01281    -0.00624
  
  S  C   6  -0.19102    -0.28826    -0.01149     0.07326     0.05346     0.01755
 PX  C   6   0.13328     0.27215    -0.00078    -0.05403    -0.05840    -0.02171
 PY  C   6   0.09109    -0.09266     0.05157    -0.11697    -0.08284    -0.02753
 PZ  C   6  -0.00547    -0.00809    -0.00012     0.00142     0.00115     0.00088
  
  S  C   7  -0.22368    -0.00757    -0.04142     0.04764    -0.10770    -0.08800
 PX  C   7  -0.07146    -0.01269    -0.00660    -0.04437    -0.14014    -0.11457
 PY  C   7   0.11851     0.00045     0.02885    -0.08045     0.14154     0.18389
 PZ  C   7  -0.00990    -0.00028    -0.00042    -0.00081    -0.00398     0.00067
  
  S  C   8   0.20330    -0.10712     0.06610    -0.05507     0.12302     0.11589
 PX  C   8  -0.04515    -0.00539    -0.04845     0.09829    -0.02168    -0.16638
 PY  C   8   0.07006    -0.05831     0.02685    -0.00699     0.16263     0.19753
 PZ  C   8  -0.01037     0.00801    -0.00404     0.00475    -0.00678    -0.00892
  
  S  C   9   0.01776     0.04114     0.05707    -0.13216     0.00787     0.19701
 PX  C   9   0.14435    -0.05634     0.04337    -0.03760     0.09287     0.08848
 PY  C   9   0.05549    -0.01278     0.00064     0.12699     0.01151    -0.15746
 PZ  C   9  -0.00086    -0.00218    -0.00049     0.00060     0.00071     0.00140
  
  S  C  10  -0.04228     0.01905    -0.02473     0.13357    -0.04490    -0.12823
 PX  C  10  -0.14763     0.04489     0.01776    -0.09011    -0.07857     0.13253
[...]
  S   H   18   -0.0786   -0.0290   -0.0350   -0.0681    0.0094    0.2962   -0.0026   -0.0918
  S   H   19   -0.1837   -0.2496    0.2081    0.1659   -0.1691    0.0533   -0.0142   -0.2098
  S   H   20    0.1308   -0.2926    0.2598   -0.1238   -0.0016   -0.0097    0.0465    0.1515
  S   C   21    0.1201   -0.0504   -0.0119    0.0038    0.0123    0.0013    0.0452   -0.0207
  Px  C   21    0.1201   -0.0810   -0.2250    0.1034   -0.2430   -0.0017   -0.0687   -0.0049
  Py  C   21   -0.1626    0.1012    0.0931   -0.0472    0.0762    0.0053    0.2371   -0.1003
  Pz  C   21   -0.0251    0.0141    0.0116   -0.0054    0.0043    0.0003    0.0133   -0.0050
  S   C   22    0.0821   -0.0397    0.0405   -0.0166    0.0394   -0.0014   -0.0906    0.0360
  Px  C   22    0.0958   -0.0490    0.0383   -0.0193    0.0308    0.0097    0.4778   -0.1380
  Py  C   22    0.0909   -0.0357   -0.0424    0.0165   -0.0506   -0.0007   -0.0968   -0.0096
  Pz  C   22   -0.0027    0.0010   -0.0054    0.0025   -0.0031   -0.0005   -0.0240    0.0066
  S   C   23   -0.0430    0.0120    0.0395   -0.0160    0.0382    0.0022    0.1307   -0.0011
  Px  C   23   -0.1177    0.0636   -0.0176    0.0050   -0.0340   -0.0049   -0.2496   -0.0446
  Py  C   23    0.0053   -0.0039    0.0541   -0.0244    0.0504   -0.0074   -0.4576    0.0500
  Pz  C   23   -0.0055    0.0031    0.0048   -0.0020    0.0052   -0.0002   -0.0146    0.0020
  S   C   24   -0.1268    0.0726   -0.0292    0.0114   -0.0134   -0.0006   -0.0597   -0.0403
  Px  C   24    0.0374   -0.0097   -0.0569    0.0226   -0.0784   -0.0044   -0.2271   -0.0343
  Py  C   24   -0.1716    0.1603   -0.1949    0.0898   -0.2832   -0.0003    0.2418    0.1624
  Pz  C   24    0.0083   -0.0027   -0.0070    0.0034   -0.0169   -0.0001    0.0172    0.0149
  S   H   25   -0.2181    0.1184    0.1480   -0.0704    0.1304    0.0034    0.1484   -0.0534
  S   H   26   -0.1280    0.0629   -0.0326    0.0155   -0.0221   -0.0062   -0.3016    0.0854
  S   H   27    0.0725   -0.0370   -0.0306    0.0143   -0.0137    0.0055    0.3088   -0.0130
  S   H   28    0.1983   -0.1505    0.1377   -0.0632    0.1824   -0.0009   -0.1963   -0.0962
  S   C   29    0.1579   -0.1139   -0.1817    0.0786   -0.2288   -0.0019    0.0062   -0.0053
  Px  C   29   -0.0640    0.0285   -0.0463    0.0225   -0.1183   -0.0004   -0.0844   -0.0004
  Py  C   29    0.1418   -0.1639    0.0212   -0.0011    0.1537   -0.0022   -0.0270   -0.0369
  Pz  C   29    0.0160   -0.0128   -0.0166    0.0070   -0.0152   -0.0001   -0.0011    0.0002
  S   C   30   -0.1484    0.1484   -0.1453    0.0611   -0.2569   -0.0010   -0.0119    0.0149
  Px  C   30   -0.0682    0.0919    0.0839   -0.0318    0.0701    0.0010    0.0856    0.1706
  Py  C   30    0.1551   -0.1256   -0.0701    0.0280   -0.1604   -0.0043    0.0529    0.0724
  Pz  C   30   -0.0186    0.0203   -0.0254    0.0108   -0.0384   -0.0004    0.0035    0.0076


   Root No.      73        74        75        76        77        78        79        80

                73 ????   74 ????   21 a1     17 b2     18 b2     78 ????   22 a1     80 ????

                 9.335     9.520    10.168    10.615    11.088    11.645    11.792    12.187
  
  S   C    1   -0.0059   -0.0413    0.0660   -0.0613    0.0494    0.0191    0.0192    0.0064
  Px  C    1   -0.0931   -0.1521   -0.0610   -0.2030   -0.1486   -0.0414   -0.1969   -0.2190
  Py  C    1    0.0523   -0.0403    0.2408   -0.0427    0.2152    0.0691    0.1613    0.1461
  Pz  C    1   -0.0025   -0.0076    0.0053   -0.0094    0.0014    0.0012   -0.0029   -0.0044
  S   C    2    0.0575    0.0518    0.0744    0.0280    0.0860    0.0452    0.0293    0.0139
  Px  C    2   -0.0871   -0.1601    0.0154   -0.2319   -0.0528    0.0139   -0.1636   -0.2102
  Py  C    2    0.1895    0.1108    0.2200   -0.0488    0.1953    0.1373   -0.0344   -0.0902
  Pz  C    2   -0.0016   -0.0037   -0.0009   -0.0053   -0.0032   -0.0008   -0.0048   -0.0050
  S   C    3    0.0050    0.0315   -0.0076    0.0632    0.0201    0.0048    0.0224    0.0210
  Px  C    3    0.2192    0.1050    0.2742   -0.0603   -0.0508   -0.2654    0.0683    0.0547
  Py  C    3    0.0630    0.0012    0.1468   -0.0925    0.2860    0.3413   -0.1406   -0.2228
  Pz  C    3   -0.0019   -0.0007   -0.0014    0.0001   -0.0021   -0.0027    0.0027    0.0025
  S   C    4    0.0315    0.0389   -0.0042    0.0575   -0.0301   -0.0133   -0.0233   -0.0161
  Px  C    4   -0.0130    0.0425   -0.2594   -0.1188   -0.2253   -0.1551    0.0787    0.1422
  Py  C    4   -0.0254    0.0529   -0.1621    0.0015    0.1812    0.3979   -0.1355   -0.1694
  Pz  C    4    0.0012    0.0043   -0.0072    0.0025    0.0008    0.0088   -0.0051   -0.0050
  S   C    5    0.0407    0.0594   -0.0755    0.0311   -0.0907   -0.0459   -0.0396   -0.0254
  Px  C    5   -0.0349   -0.0027   -0.1814   -0.1611   -0.1381   -0.1171    0.1110    0.1646
  Py  C    5   -0.1475   -0.1889    0.1041   -0.1602    0.1410    0.0524    0.1349    0.1371
  Pz  C    5   -0.0028   -0.0043    0.0045   -0.0031    0.0047    0.0017    0.0031    0.0029
  S   C    6   -0.0614   -0.0535   -0.0614   -0.0712   -0.0484   -0.0192   -0.0139   -0.0058
  Px  C    6   -0.2035   -0.1578   -0.1694   -0.1656   -0.1083   -0.0361   -0.0312   -0.0164
  Py  C    6   -0.0403   -0.0936    0.1789   -0.1198    0.2351    0.0703    0.2574    0.2599
  Pz  C    6   -0.0052   -0.0057    0.0009   -0.0065    0.0032    0.0001    0.0066    0.0072
  S   C    7   -0.1132   -0.0116   -0.0918    0.0877    0.0525    0.0743    0.0527    0.0099
  Px  C    7    0.1603    0.1027    0.1778    0.0105   -0.0240   -0.2048    0.1195    0.0759
  Py  C    7   -0.3035    0.0214   -0.1394    0.2452    0.1066    0.0596    0.1873    0.0404
  Pz  C    7    0.0032   -0.0000   -0.0003   -0.0002   -0.0001    0.0005    0.0001    0.0006
  S   C    8    0.0384    0.0087    0.0778    0.0837   -0.0494   -0.0677   -0.0501   -0.0078
  Px  C    8    0.0993    0.0968   -0.0032    0.2088   -0.0910    0.0514   -0.2255   -0.0815
  Py  C    8   -0.0526    0.0400   -0.2253   -0.1182    0.0654    0.2080   -0.0119   -0.0575
  Pz  C    8   -0.0013    0.0027   -0.0117   -0.0041    0.0022    0.0110   -0.0027   -0.0029
  S   C    9   -0.0114   -0.0391    0.0432   -0.0174   -0.0020   -0.0293   -0.0020   -0.0051
  Px  C    9    0.1461    0.0922    0.0668    0.2501   -0.1550   -0.0198   -0.2522   -0.0837
  Py  C    9    0.1281    0.0149   -0.1056    0.1213   -0.1353    0.1466    0.3649   -0.0151
  Pz  C    9    0.0040    0.0006   -0.0039    0.0039   -0.0056    0.0044    0.0178   -0.0011
  S   C   10    0.0138   -0.0350   -0.0301   -0.0161    0.0041    0.0252   -0.0010    0.0092
  Px  C   10   -0.3081    0.0033    0.0427    0.2478    0.1910   -0.1222   -0.1890    0.0542
  Py  C   10   -0.1260    0.0590   -0.1321    0.1543    0.0552    0.0917    0.4066    0.0566
  Pz  C   10   -0.0127   -0.0007   -0.0055    0.0117    0.0074    0.0010    0.0050    0.0049
  S   C   11    0.1108   -0.0417   -0.0593   -0.0756   -0.0259    0.0639    0.0161    0.0341
  Px  C   11   -0.2187   -0.0233   -0.0028    0.2020    0.1549   -0.0634   -0.1755    0.0912
  Py  C   11    0.3235   -0.1914   -0.1753   -0.1022    0.0183    0.1198   -0.0429    0.1675
  Pz  C   11   -0.0104    0.0025    0.0034    0.0086    0.0055   -0.0052   -0.0051    0.0008
  S   H   12    0.2378   -0.0925   -0.0945   -0.0985   -0.0370    0.0866    0.0329    0.0630
  S   C   13   -0.0728   -0.0642    0.0723   -0.0837    0.0313   -0.0633   -0.0166   -0.0246
  Px  C   13   -0.0485   -0.1581    0.1487    0.0088   -0.0940   -0.0634    0.1228   -0.1561
  Py  C   13    0.1724    0.1085   -0.0860    0.2123   -0.1284    0.1013    0.1170   -0.0032
  Pz  C   13    0.0066    0.0088   -0.0079    0.0080   -0.0009    0.0047    0.0007    0.0029
  S   H   14   -0.1912   -0.0172   -0.1131    0.1045    0.0595    0.0904    0.0575   -0.0049
  S   H   15    0.0006   -0.0658    0.1032   -0.0810    0.0644    0.0242    0.0216    0.0085
  S   H   16    0.1224    0.1006    0.1084    0.0375    0.1192    0.0737    0.0272    0.0102
  S   H   17    0.0564    0.0855   -0.1029    0.0249   -0.1107   -0.0651   -0.0306   -0.0150
  S   H   18   -0.1242   -0.0973   -0.0971   -0.1002   -0.0604   -0.0217   -0.0143   -0.0065
  S   H   19    0.0523    0.0041    0.1149    0.1033   -0.0586   -0.0995   -0.0563    0.0106
  S   H   20   -0.0998   -0.0927    0.0822   -0.0883    0.0399   -0.0741   -0.0276   -0.0476
  S   C   21   -0.0495    0.1040    0.0540   -0.0309   -0.0904    0.0757    0.0102    0.0121
  Px  C   21    0.1286   -0.0697   -0.1338   -0.1584    0.1293   -0.0775    0.1166   -0.2221
  Py  C   21   -0.1248    0.3845    0.0736   -0.1924   -0.1523    0.1469    0.0761   -0.0810
  Pz  C   21   -0.0010    0.0149   -0.0009   -0.0117   -0.0021    0.0032    0.0047   -0.0066
  S   C   22   -0.0075   -0.0829    0.0420    0.0699   -0.0494    0.0280    0.0054    0.0028
  Px  C   22    0.0552    0.2633   -0.1256   -0.1832    0.1115   -0.0539   -0.0064   -0.0076
  Py  C   22   -0.0792    0.1555    0.1199   -0.1434   -0.2451    0.2182    0.1666   -0.1973
  Pz  C   22   -0.0037   -0.0106    0.0074    0.0053   -0.0087    0.0063    0.0025   -0.0021
  S   C   23    0.0490   -0.0761   -0.0375    0.0711    0.0361   -0.0247   -0.0053   -0.0065
  Px  C   23   -0.0796    0.2487   -0.0550   -0.2112    0.1817   -0.1585   -0.1315    0.1754
  Py  C   23   -0.1283    0.0647    0.1594   -0.0514   -0.2209    0.1690    0.1012   -0.1035
  Pz  C   23   -0.0034   -0.0004    0.0056    0.0007   -0.0087    0.0064    0.0059   -0.0073
  S   C   24    0.0006    0.0898   -0.0608   -0.0273    0.0913   -0.0712   -0.0120   -0.0094
  Px  C   24   -0.0966    0.2544   -0.0038   -0.2443    0.0985   -0.0882   -0.1281    0.2052
  Py  C   24   -0.0455   -0.2430    0.1809   -0.0473   -0.1840    0.1372   -0.0522    0.1465
  Pz  C   24   -0.0056   -0.0204    0.0184   -0.0051   -0.0190    0.0137   -0.0045    0.0134
  S   H   25   -0.0948    0.2202    0.0682   -0.0630   -0.1099    0.0966    0.0101    0.0159
  S   H   26   -0.0378   -0.1603    0.0774    0.1115   -0.0685    0.0351    0.0033    0.0053
  S   H   27    0.0901   -0.1099   -0.0609    0.0931    0.0495   -0.0327   -0.0057   -0.0075
  S   H   28   -0.0007    0.1941   -0.0941   -0.0373    0.1204   -0.0957   -0.0046   -0.0253
  S   C   29   -0.0033    0.0425    0.0057   -0.0581   -0.0263    0.0242    0.0104   -0.0068
  Px  C   29    0.2065   -0.1730   -0.2065   -0.1104    0.2223   -0.1436    0.1011   -0.2115
  Py  C   29    0.1464   -0.1115   -0.1178    0.0079   -0.0513    0.2438   -0.1831    0.3741
  Pz  C   29    0.0019   -0.0014   -0.0018   -0.0026    0.0025   -0.0044    0.0073   -0.0110
  S   C   30   -0.0248    0.0340   -0.0024   -0.0612    0.0409   -0.0356   -0.0080   -0.0036
  Px  C   30   -0.1216   -0.1841    0.2234   -0.0730   -0.0669   -0.1259    0.0937   -0.1630
  Py  C   30   -0.0472   -0.0416    0.1161   -0.1088   -0.1911    0.2385   -0.1809    0.3843
  Pz  C   30   -0.0071   -0.0010    0.0082   -0.0127   -0.0060    0.0077   -0.0111    0.0204


   Root No.      81        82        83        84

                23 a1     24 a1     19 b2     20 b2  

                12.543    12.722    13.237    14.607
  
  S   C    1    0.0654    0.0031   -0.0056    0.0367
  Px  C    1    0.1642   -0.1931   -0.1902    0.0943
  Py  C    1    0.0571    0.1255    0.1041    0.0264
  Pz  C    1    0.0079   -0.0040   -0.0044    0.0041
  S   C    2    0.0232    0.0082    0.0035    0.0314
  Px  C    2    0.2255   -0.1912   -0.1941    0.1404
  Py  C    2    0.1706   -0.0765   -0.0738    0.1280
  Pz  C    2    0.0038   -0.0041   -0.0040    0.0017
  S   C    3   -0.0215    0.0067   -0.0078    0.0191
  Px  C    3    0.2451   -0.0624   -0.2520    0.2249
  Py  C    3    0.1525   -0.1378   -0.0412    0.1118
  Pz  C    3   -0.0012    0.0012    0.0010   -0.0012
  S   C    4   -0.0151   -0.0046    0.0094    0.0245
  Px  C    4    0.2579    0.1721    0.1469    0.2062
  Py  C    4    0.1309   -0.0034    0.1860    0.1338
  Pz  C    4    0.0052    0.0009    0.0069    0.0069
  S   C    5    0.0083   -0.0159   -0.0136    0.0250
  Px  C    5    0.2613    0.1848    0.1459    0.1724
  Py  C    5    0.1259    0.1410    0.1250    0.0559
  Pz  C    5    0.0017    0.0028    0.0022    0.0003
  S   C    6    0.0660    0.0065    0.0048    0.0370
  Px  C    6    0.1322    0.0074    0.0049    0.0702
  Py  C    6    0.1408    0.2452    0.2126    0.0667
  Pz  C    6    0.0061    0.0069    0.0057    0.0029
  S   C    7   -0.0572   -0.0219   -0.0084    0.0181
  Px  C    7    0.1969   -0.0755   -0.2573    0.2382
  Py  C    7   -0.0055   -0.1136   -0.1562    0.1662
  Pz  C    7   -0.0003    0.0001   -0.0006    0.0017
  S   C    8   -0.0581    0.0149    0.0138    0.0205
  Px  C    8    0.0901    0.1433    0.2576    0.2649
  Py  C    8    0.1801    0.0214    0.1291    0.1198
  Pz  C    8    0.0096    0.0027    0.0086    0.0073
  S   C    9   -0.0641   -0.0181    0.0014   -0.0042
  Px  C    9    0.0172    0.1342    0.2670    0.2774
  Py  C    9   -0.0368   -0.2882    0.0683    0.1568
  Pz  C    9   -0.0007   -0.0126    0.0020    0.0050
  S   C   10   -0.0629    0.0167    0.0050   -0.0055
  Px  C   10   -0.0267    0.1775   -0.1961    0.2640
  Py  C   10    0.0495   -0.2643   -0.1950    0.1625
  Pz  C   10   -0.0031   -0.0006   -0.0116    0.0117
  S   C   11   -0.0604   -0.0027   -0.0123   -0.0092
  Px  C   11   -0.1007    0.1884   -0.2111    0.2668
  Py  C   11   -0.1762    0.0586   -0.1637    0.1366
  Pz  C   11    0.0017    0.0044   -0.0052    0.0065
  S   H   12   -0.0509   -0.0283   -0.0255   -0.0036
  S   C   13   -0.0657   -0.0017    0.0157   -0.0089
  Px  C   13   -0.2045   -0.1603    0.2547    0.2706
  Py  C   13    0.0107   -0.1230    0.0974    0.1634
  Pz  C   13    0.0058    0.0001   -0.0024    0.0004
  S   H   14   -0.0446   -0.0374   -0.0039    0.0116
  S   H   15    0.0715    0.0073   -0.0006    0.0350
  S   H   16    0.0192    0.0129    0.0187    0.0192
  S   H   17    0.0122   -0.0131   -0.0194    0.0169
  S   H   18    0.0751    0.0051    0.0021    0.0367
  S   H   19   -0.0554    0.0333    0.0012    0.0060
  S   H   20   -0.0493    0.0221    0.0240   -0.0041
  S   C   21    0.0129    0.0208   -0.0180   -0.0269
  Px  C   21   -0.2554    0.2055   -0.0901    0.1722
  Py  C   21   -0.1218    0.1754   -0.1089    0.0511
  Pz  C   21   -0.0101    0.0090   -0.0047    0.0055
  S   C   22    0.0593   -0.0043    0.0035   -0.0360
  Px  C   22   -0.1355    0.0136   -0.0102    0.0763
  Py  C   22   -0.1475    0.3066   -0.1728    0.0673
  Pz  C   22    0.0013    0.0048   -0.0031   -0.0002
  S   C   23    0.0610    0.0025   -0.0037   -0.0364
  Px  C   23   -0.1420   -0.2528    0.1471    0.0940
  Py  C   23   -0.0580    0.1676   -0.0926    0.0249
  Pz  C   23   -0.0007    0.0090   -0.0044    0.0002
  S   C   24    0.0206   -0.0186    0.0141   -0.0287
  Px  C   24   -0.1955   -0.2540    0.1420    0.1373
  Py  C   24   -0.1489   -0.0792    0.0248    0.1224
  Pz  C   24   -0.0143   -0.0075    0.0028    0.0118
  S   H   25   -0.0063    0.0390   -0.0349   -0.0101
  S   H   26    0.0762   -0.0035    0.0016   -0.0394
  S   H   27    0.0694   -0.0023    0.0005   -0.0365
  S   H   28    0.0199   -0.0262    0.0270   -0.0192
  S   C   29   -0.0075    0.0006    0.0113   -0.0293
  Px  C   29   -0.2572    0.1798   -0.0858    0.2067
  Py  C   29   -0.1157    0.0489   -0.2319    0.1307
  Pz  C   29   -0.0024    0.0021    0.0025    0.0006
  S   C   30   -0.0046    0.0032   -0.0089   -0.0332
  Px  C   30   -0.2416   -0.1569    0.2540    0.2348
  Py  C   30   -0.1354   -0.1308   -0.0410    0.1082
  Pz  C   30   -0.0105   -0.0090   -0.0005    0.0053


              NET ATOMIC CHARGES AND DIPOLE CONTRIBUTIONS

  ATOM NO.   TYPE          CHARGE      No. of ELECS.   s-Pop       p-Pop       
    1          C          -0.030313        4.0303     1.10430     2.92601
    2          C          -0.033268        4.0333     1.10248     2.93078
    3          C           0.010977        3.9890     1.07134     2.91768
    4          C           0.005472        3.9945     1.08105     2.91347
    5          C          -0.029007        4.0290     1.10585     2.92315
    6          C          -0.020337        4.0203     1.09052     2.92982
    7          C          -0.028813        4.0288     1.09221     2.93660
    8          C          -0.027875        4.0279     1.09075     2.93713
    9          C           0.015554        3.9844     1.05549     2.92896
   10          C           0.013857        3.9861     1.06025     2.92590
   11          C          -0.046960        4.0470     1.10197     2.94499
   12          H           0.023220        0.9768     0.97678
   13          C          -0.035390        4.0354     1.10493     2.93046
   14          H           0.028442        0.9716     0.97156
   15          H           0.022920        0.9771     0.97708
   16          H           0.022956        0.9770     0.97704
   17          H           0.020460        0.9795     0.97954
   18          H           0.024790        0.9752     0.97521
   19          H           0.027206        0.9728     0.97279
   20          H           0.010171        0.9898     0.98983
   21          C          -0.032176        4.0322     1.10121     2.93097
   22          C          -0.025540        4.0255     1.09269     2.93285
   23          C          -0.026158        4.0262     1.10502     2.92114
   24          C          -0.032315        4.0323     1.10209     2.93023
   25          H           0.034003        0.9660     0.96600
   26          H           0.024641        0.9754     0.97536
   27          H           0.020694        0.9793     0.97931
   28          H           0.031805        0.9682     0.96819
   29          C           0.013916        3.9861     1.06204     2.92405
   30          C           0.017068        3.9829     1.06008     2.92285
 DIPOLE           X         Y         Z       TOTAL
 POINT-CHG.     0.161    -0.019    -0.052     0.170
 HYBRID        -0.061    -0.112    -0.230     0.263
 SUM            0.100    -0.131    -0.281     0.326


          ATOMIC ORBITAL ELECTRON POPULATIONS

     Atom    s        px        py        pz   
    1  C   1.10430   0.97716   0.94935   0.99950
    2  C   1.10248   0.97033   0.95406   1.00639
    3  C   1.07134   0.96906   0.96708   0.98154
    4  C   1.08105   0.95830   0.96696   0.98821
    5  C   1.10585   0.96009   0.95277   1.01030
    6  C   1.09052   0.94326   0.99184   0.99472
    7  C   1.09221   0.96903   0.95152   1.01606
    8  C   1.09075   0.97748   0.94900   1.01065
    9  C   1.05549   0.97628   0.96994   0.98274
   10  C   1.06025   0.97940   0.97217   0.97432
   11  C   1.10197   0.96960   0.95673   1.01866
   12  H   0.97678
   13  C   1.10493   0.96420   0.94761   1.01866
   14  H   0.97156
   15  H   0.97708
   16  H   0.97704
   17  H   0.97954
   18  H   0.97521
   19  H   0.97279
   20  H   0.98983
   21  C   1.10121   0.98546   0.94602   0.99949
   22  C   1.09269   0.94954   0.98120   1.00212
   23  C   1.10502   0.97484   0.95003   0.99627
   24  C   1.10209   0.97564   0.95033   1.00425
   25  H   0.96600
   26  H   0.97536
   27  H   0.97931
   28  H   0.96819
   29  C   1.06204   0.97442   0.97492   0.97470
   30  C   1.06008   0.97348   0.96801   0.98136

 **********************
 *                    *
 * JOB ENDED NORMALLY *
 *                    *
 **********************



 TOTAL JOB TIME:             0.89 SECONDS

 == MOPAC DONE ==


          MOPAC Job: "./tetraceneTraj/tetracene_328.mop" ended normally on Feb 15, 2023, at 11:23.

rm: cannot remove ./tetraceneTraj/tetracene_328.cim: No such file or directory
rm: cannot remove ./tetraceneTraj/tetracene_328.end: No such file or directory
rm: cannot remove ./tetraceneTraj/tetracene_328.log: No such file or directory
rm: cannot remove ./tetraceneTraj/tetracene_328.temp: No such file or directory
rm: cannot remove ./tetraceneTraj/tetracene_328.ple: No such file or directory
rm: cannot remove ./tetraceneTraj/tetracene_328.sts: No such file or directory
