 *******************************************************************************
 ** Site#:    0         For non-commercial use only    Version 20.173L 64BITS **
 *******************************************************************************
 ** Cite this program as: MOPAC2016, Version: 20.173L, James J. P. Stewart,   **
 ** Stewart Computational Chemistry, web-site: HTTP://OpenMOPAC.net.          **
 *******************************************************************************
 **                                                                           **
 **                                MOPAC2016                                  **
 **                                                                           **
 *******************************************************************************

                              INDO CALCULATION RESULTS

 *******************************************************************************
 *  CALCULATION DONE:                                Wed Feb 15 11:21:35 2023  *
 *  INDO       - The INDO Hamiltonian to be used
 *
 *
 *
 *                 CHARGE ON SYSTEM = 0
 *
 *
 *
 *  C.I.=(N,M) - 3 DOUBLY FILLED LEVELS USED IN A C.I. INVOLVING 6 M.O.'S
 *  T=         - A TIME OF 172800.0 SECONDS REQUESTED
 *  DUMP=N     - RESTART FILE WRITTEN EVERY 7200.0 SECONDS REQUESTED
 *  RELSCF     - DEFAULT SCF CRITERION MULTIPLIED BY 0.0000
 *              (DEFAULT SCF CRITERION = 0.00010)
 *  ALLVEC     - PRINT ALL EIGENVECTORS
 **********
 *  WARNING: Specified print options may not behave as expected with INDO
 **********
 *******************************************************************************
INDO C.I.=(6,3) AllVEC CHARGE=0 RELSCF=0.000001


   ATOM   CHEMICAL          X               Y               Z
  NUMBER   SYMBOL      (ANGSTROMS)     (ANGSTROMS)     (ANGSTROMS)
 
     1       C         18.55615757  *  19.47047057  *  22.38030454  *
     2       C         19.96131988  *  19.41512642  *  22.43302851  *
     3       C         20.74152041  *  20.63856069  *  22.43669299  *
     4       C         20.02112383  *  21.92436846  *  22.45581473  *
     5       C         18.57178815  *  21.96048298  *  22.48683984  *
     6       C         17.85714987  *  20.78558805  *  22.39523096  *
     7       C         22.15858257  *  20.64695901  *  22.46755332  *
     8       C         20.70928522  *  23.14384972  *  22.51107064  *
     9       C         22.11755146  *  23.15331272  *  22.51660839  *
    10       C         22.86700544  *  21.86706860  *  22.49170743  *
    11       C         24.28067126  *  21.84641456  *  22.51353274  *
    12       H         24.78122967  *  20.86062969  *  22.52891715  *
    13       C         22.86031466  *  24.33070928  *  22.54897894  *
    14       H         22.70635628  *  19.68131279  *  22.51466388  *
    15       H         17.95161993  *  18.53461522  *  22.25092484  *
    16       H         20.44330211  *  18.39912229  *  22.49221275  *
    17       H         18.11529251  *  22.97407786  *  22.59956199  *
    18       H         16.76336206  *  20.80008049  *  22.47912987  *
    19       H         20.11508588  *  24.07629478  *  22.57756961  *
    20       H         22.35052968  *  25.28992646  *  22.52106089  *
    21       C         26.43861399  *  23.06363087  *  22.57328019  *
    22       C         27.12082582  *  24.27658373  *  22.59462639  *
    23       C         26.41771243  *  25.53690281  *  22.57009382  *
    24       C         25.03116156  *  25.57412463  *  22.52803070  *
    25       H         26.97834918  *  22.08769222  *  22.59153102  *
    26       H         28.20367948  *  24.30772335  *  22.62731687  *
    27       H         26.94602760  *  26.49399418  *  22.64827409  *
    28       H         24.52891797  *  26.53093792  *  22.60874840  *
    29       C         25.01250968  *  23.03198236  *  22.56253739  *
    30       C         24.28647026  *  24.33080664  *  22.49711568  *
 


          CARTESIAN COORDINATES 

    NO.       ATOM           X           Y           Z

     1         C         18.5562     19.4705     22.3803
     2         C         19.9613     19.4151     22.4330
     3         C         20.7415     20.6386     22.4367
     4         C         20.0211     21.9244     22.4558
     5         C         18.5718     21.9605     22.4868
     6         C         17.8571     20.7856     22.3952
     7         C         22.1586     20.6470     22.4676
     8         C         20.7093     23.1438     22.5111
     9         C         22.1176     23.1533     22.5166
    10         C         22.8670     21.8671     22.4917
    11         C         24.2807     21.8464     22.5135
    12         H         24.7812     20.8606     22.5289
    13         C         22.8603     24.3307     22.5490
    14         H         22.7064     19.6813     22.5147
    15         H         17.9516     18.5346     22.2509
    16         H         20.4433     18.3991     22.4922
    17         H         18.1153     22.9741     22.5996
    18         H         16.7634     20.8001     22.4791
    19         H         20.1151     24.0763     22.5776
    20         H         22.3505     25.2899     22.5211
    21         C         26.4386     23.0636     22.5733
    22         C         27.1208     24.2766     22.5946
    23         C         26.4177     25.5369     22.5701
    24         C         25.0312     25.5741     22.5280
    25         H         26.9783     22.0877     22.5915
    26         H         28.2037     24.3077     22.6273
    27         H         26.9460     26.4940     22.6483
    28         H         24.5289     26.5309     22.6087
    29         C         25.0125     23.0320     22.5625
    30         C         24.2865     24.3308     22.4971

           Empirical Formula: C18 H12  =    30 atoms



      MOLECULAR POINT GROUP   :   C2  


      RHF CALCULATION, NO. OF DOUBLY OCCUPIED LEVELS = 42

 WARNING: INDO only performs single-point calculations
  SCF CRITERION =    0.1000E-09

 Summary of symmetry occupancy in each shell:

 SHELL     
    1   42
    v   42
 TOTAL  84




    ROOT NO.    1           2           3           4           5           6

           -44.84174   -42.97272   -40.38224   -36.88155   -36.10708   -34.32713
  
  
  S  C   1   0.09574     0.18917    -0.25888     0.26705    -0.03589    -0.13530
 PX  C   1   0.02753     0.04786    -0.04952     0.02269    -0.04049    -0.07985
 PY  C   1   0.03606     0.06792    -0.08421     0.06706     0.02094     0.03308
 PZ  C   1   0.00166     0.00299    -0.00337     0.00201    -0.00010    -0.00014
  
  S  C   2   0.12733     0.21549    -0.22636     0.14961    -0.15337    -0.28087
 PX  C   2  -0.00049    -0.02162     0.06615    -0.10445    -0.04737    -0.02655
 PY  C   2   0.05425     0.08392    -0.06988     0.01262    -0.02343    -0.02454
 PZ  C   2   0.00017    -0.00042     0.00186    -0.00320    -0.00065     0.00057
  
  S  C   3   0.25017     0.29785    -0.10964    -0.13174    -0.20040    -0.21481
 PX  C   3   0.01017    -0.04517     0.13518    -0.13657    -0.08875    -0.04870
 PY  C   3   0.05919     0.03915     0.04984    -0.11150     0.06698     0.12337
 PZ  C   3   0.00332     0.00278     0.00143    -0.00476    -0.00165    -0.00012
  
  S  C   4   0.26151     0.31486    -0.12113    -0.16523     0.13726     0.20894
 PX  C   4   0.05169     0.00251     0.12050    -0.16322    -0.05478    -0.08355
 PY  C   4  -0.01378    -0.04719     0.08314    -0.08389     0.11595     0.13687
 PZ  C   4   0.00290     0.00249     0.00133    -0.00523     0.00472     0.00655
  
  S  C   5   0.13861     0.23374    -0.24176     0.12291     0.17211     0.27191
 PX  C   5   0.04822     0.06240    -0.02326    -0.05846     0.03156     0.04552
 PY  C   5  -0.02758    -0.06148     0.09493    -0.10595     0.02033     0.03646
 PZ  C   5  -0.00174    -0.00382     0.00569    -0.00576    -0.00000     0.00027
  
  S  C   6   0.09980     0.19678    -0.26795     0.26446     0.07446     0.09111
 PX  C   6   0.04592     0.08386    -0.09746     0.06490     0.01090     0.00616
 PY  C   6   0.00596     0.00769    -0.00061    -0.02231     0.04361     0.09355
 PZ  C   6   0.00263     0.00506    -0.00658     0.00571     0.00349     0.00595
  
  S  C   7   0.23621     0.15457     0.12285    -0.19505    -0.33820    -0.19159
 PX  C   7  -0.02670    -0.07224     0.05050     0.08044    -0.01458     0.06993
 PY  C   7   0.08326     0.02842     0.08007    -0.06327    -0.01842     0.03529
 PZ  C   7   0.00155    -0.00014     0.00212     0.00005    -0.00187     0.00090
  
  S  C   8   0.24373     0.17267     0.10792    -0.25767     0.28141     0.20595
 PX  C   8   0.05422    -0.01678     0.09969    -0.02107     0.01592    -0.08791
 PY  C   8  -0.06804    -0.07927     0.00470     0.09740     0.02967    -0.04387
 PZ  C   8  -0.00146    -0.00199     0.00041     0.00259     0.00133    -0.00075
  
  S  C   9   0.34058     0.03831     0.28357    -0.04149     0.23767    -0.00945
 PX  C   9   0.02997    -0.09012     0.03957     0.19461    -0.04826    -0.07207
 PY  C   9  -0.04621    -0.05545    -0.02729     0.09655     0.14811    -0.03100
 PZ  C   9  -0.00098    -0.00149    -0.00051     0.00276     0.00207     0.00001
  
  S  C  10   0.34072     0.03014     0.28723     0.00888    -0.22842    -0.02109
 PX  C  10  -0.02306    -0.09502    -0.00498     0.19864    -0.05453     0.06022
 PY  C  10   0.04852    -0.04594     0.04284     0.09205     0.15540     0.03305
 PZ  C  10   0.00194    -0.00162     0.00193     0.00391     0.00079     0.00161
  
  S  C  11   0.25159    -0.12608     0.15997     0.25084    -0.28441     0.17981
 PX  C  11  -0.05231    -0.03166    -0.09375    -0.00257     0.01723     0.08811
 PY  C  11   0.07225    -0.07031     0.01616     0.10165     0.03116     0.04554
 PZ  C  11   0.00123    -0.00174    -0.00022     0.00269    -0.00117     0.00351
  
  S  H  12   0.07692    -0.03574     0.04743     0.07188    -0.15150     0.08590
  
  S  C  13   0.25015    -0.11704     0.16205     0.18455     0.33985    -0.18918
 PX  C  13   0.02956    -0.07335    -0.03444     0.08455    -0.01887    -0.06998
 PY  C  13  -0.08386     0.00853    -0.08956    -0.05365    -0.01268    -0.04094
 PZ  C  13  -0.00430     0.00144    -0.00391    -0.00396    -0.00606     0.00354
  
  S  H  14   0.07055     0.04316     0.03582    -0.04263    -0.16097    -0.08973
  
  S  H  15   0.02274     0.04797    -0.07329     0.09134    -0.01459    -0.05615
  
  S  H  16   0.03586     0.05910    -0.06009     0.04136    -0.07404    -0.12852
  
  S  H  17   0.04432     0.07049    -0.06529     0.01925     0.08922     0.14080
  
  S  H  18   0.02502     0.05256    -0.07960     0.09398     0.03047     0.04152
  
  S  H  19   0.07390     0.05393     0.02552    -0.07422     0.14774     0.10686
  
  S  H  20   0.07764    -0.03558     0.04575     0.04290     0.16780    -0.09494
  
  S  C  21   0.15858    -0.24520    -0.20982    -0.08128    -0.17709     0.28869
 PX  C  21  -0.05367     0.06111     0.01146    -0.06194     0.03206    -0.04318
 PY  C  21   0.03578    -0.07262    -0.09387    -0.09446     0.01661    -0.02588
 PZ  C  21  -0.00073     0.00053    -0.00064    -0.00194     0.00001     0.00034
  
  S  C  22   0.12396    -0.22651    -0.26242    -0.23591    -0.07986     0.10868
 PX  C  22  -0.05550     0.09328     0.09090     0.05265     0.01055    -0.00673
 PY  C  22  -0.00487     0.00356    -0.00719    -0.03174     0.04505    -0.09999
 PZ  C  22  -0.00150     0.00255     0.00252     0.00150     0.00044    -0.00037
  
  S  C  23   0.12325    -0.22578    -0.26367    -0.25243     0.03618    -0.13525
 PX  C  23  -0.03273     0.05168     0.04337     0.01477    -0.04374     0.08542
 PY  C  23  -0.04465     0.07742     0.08059     0.05594     0.02582    -0.04543
 PZ  C  23  -0.00016     0.00013    -0.00027    -0.00115    -0.00042     0.00056
  
  S  C  24   0.15428    -0.24003    -0.21207    -0.12929     0.15911    -0.28862
 PX  C  24   0.00615    -0.03536    -0.07689    -0.10369    -0.04956     0.02828
 PY  C  24  -0.06150     0.08575     0.05600    -0.00005    -0.01805     0.01229
 PZ  C  24   0.00187    -0.00327    -0.00359    -0.00334     0.00155    -0.00389
  
  S  H  25   0.04716    -0.06968    -0.05454    -0.01064    -0.08661     0.14033
  
  S  H  26   0.03202    -0.06256    -0.08100    -0.08779    -0.03257     0.04800
  
  S  H  27   0.03168    -0.06186    -0.08044    -0.09280     0.01790    -0.06436
  
  S  H  28   0.04678    -0.07032    -0.05933    -0.03779     0.08387    -0.14403
  
  S  C  29   0.28012    -0.29244    -0.05448     0.19311    -0.15462     0.22540
 PX  C  29  -0.04968    -0.01680    -0.13029    -0.14518    -0.05056     0.08822
 PY  C  29   0.02382    -0.06206    -0.08455    -0.07250     0.10454    -0.11044
 PZ  C  29  -0.00487     0.00388    -0.00183    -0.00615     0.00168    -0.00191
  
  S  C  30   0.27543    -0.28611    -0.05544     0.14861     0.18837    -0.19830
 PX  C  30  -0.00433    -0.06385    -0.13980    -0.12031    -0.09444     0.06001
 PY  C  30  -0.05686     0.02074    -0.06776    -0.10984     0.07761    -0.13487
 PZ  C  30   0.00649    -0.00769    -0.00295     0.00250     0.00395    -0.00461




    ROOT NO.    7           8           9          10          11          12

           -32.00189   -31.22699   -28.83718   -28.12854   -27.10778   -26.18504
  
  
  S  C   1   0.15213     0.25426     0.20783    -0.25720     0.00202     0.21745
 PX  C   1   0.10840    -0.07276     0.11760     0.15556    -0.03547     0.05841
 PY  C   1  -0.06412     0.02892    -0.10521     0.00212     0.07236    -0.12096
 PZ  C   1  -0.00058    -0.00243    -0.00279     0.00738     0.00016    -0.00629
  
  S  C   2   0.28946    -0.03440     0.20738     0.12630    -0.12302     0.04991
 PX  C   2  -0.01583    -0.13322    -0.13359     0.11211    -0.05038    -0.18833
 PY  C   2   0.00071    -0.07256    -0.07374     0.09371     0.08645    -0.12348
 PZ  C   2  -0.00188    -0.00417    -0.00501     0.00423    -0.00201    -0.00662
  
  S  C   3   0.12144    -0.24087    -0.11415     0.13068     0.09492    -0.19609
 PX  C   3  -0.05038     0.01974    -0.13826    -0.14576    -0.07675    -0.04902
 PY  C   3  -0.09243    -0.01189    -0.01012    -0.09474     0.18337     0.08417
 PZ  C   3  -0.00131    -0.00279    -0.00277    -0.00061    -0.00030    -0.00135
  
  S  C   4  -0.07564    -0.23959     0.09473     0.12604     0.09580     0.14736
 PX  C   4   0.11440     0.00207     0.03979    -0.16839     0.12182    -0.04006
 PY  C   4  -0.02852     0.02163     0.12408    -0.08190    -0.16216     0.14275
 PZ  C   4  -0.00188    -0.00299     0.00486    -0.00007    -0.00611     0.00605
  
  S  C   5  -0.28387    -0.02698    -0.17019     0.14234    -0.10309    -0.03582
 PX  C   5   0.02377    -0.14113     0.13681     0.13727     0.01741     0.16844
 PY  C   5   0.01302    -0.08262     0.08960     0.04648    -0.10971     0.11963
 PZ  C   5   0.00195    -0.00346     0.00454     0.00092    -0.00670     0.00520
  
  S  C   6  -0.17502     0.26696    -0.22401    -0.24842     0.03864    -0.18192
 PX  C   6  -0.00016    -0.02140     0.02915     0.09329     0.03263     0.03995
 PY  C   6  -0.11930    -0.06970    -0.13431     0.13661    -0.04726    -0.11617
 PZ  C   6  -0.00946     0.00392    -0.01237    -0.00035    -0.00176    -0.01163
  
  S  C   7  -0.13592    -0.00954    -0.23927    -0.09942    -0.19000    -0.00870
 PX  C   7  -0.13741     0.14112     0.06063    -0.01440    -0.13252     0.18431
 PY  C   7  -0.07165     0.08228     0.01292    -0.09562     0.14516     0.11180
 PZ  C   7  -0.00366     0.00313     0.00057    -0.00089    -0.00406     0.00394
  
  S  C   8   0.12325     0.00214     0.23524    -0.13210    -0.16497     0.03086
 PX  C   8   0.12569     0.15590    -0.04611    -0.10933     0.08292    -0.19350
 PY  C   8   0.05856     0.08645    -0.01861     0.02893    -0.17446    -0.11199
 PZ  C   8   0.00204     0.00336     0.00024     0.00099    -0.00774    -0.00448
  
  S  C   9   0.20084     0.25179     0.01434    -0.02947     0.08970    -0.16420
 PX  C   9  -0.06380     0.01969    -0.10400     0.18868     0.11619     0.05740
 PY  C   9   0.11901    -0.00492    -0.04242     0.10257    -0.22208    -0.12704
 PZ  C   9   0.00184     0.00099     0.00043     0.00309    -0.00507    -0.00375
  
  S  C  10  -0.21759     0.22674    -0.00280    -0.00653     0.07532     0.17870
 PX  C  10  -0.08524    -0.00697     0.12155     0.17505    -0.12089     0.04300
 PY  C  10   0.12799     0.03022     0.06560     0.08952     0.23423    -0.08885
 PZ  C  10   0.00024     0.00176     0.00357     0.00369     0.00089    -0.00148
  
  S  C  11  -0.16700     0.00694     0.24300     0.10570    -0.15384    -0.05517
 PX  C  11   0.12972    -0.14568     0.04704    -0.08674    -0.04929    -0.21224
 PY  C  11   0.07279    -0.07547     0.03340     0.03798     0.19700    -0.08295
 PZ  C  11   0.00244    -0.00313     0.00333    -0.00020    -0.00118    -0.00697
  
  S  H  12  -0.08353     0.00378     0.10897     0.00907    -0.20691    -0.04222
  
  S  C  13   0.15090     0.01906    -0.21443     0.13624    -0.19119    -0.02503
 PX  C  13  -0.11044    -0.15890    -0.06623     0.01127     0.10478     0.20771
 PY  C  13  -0.06201    -0.10228    -0.03813    -0.07976    -0.16967     0.08094
 PZ  C  13  -0.00290    -0.00066     0.00479    -0.00339     0.00232    -0.00080
  
  S  H  14  -0.06782    -0.00581    -0.10015    -0.00433    -0.21889    -0.00840
  
  S  H  15   0.07053     0.13077     0.11603    -0.17604    -0.02290     0.15101
  
  S  H  16   0.13280    -0.01248     0.10376     0.04163    -0.12468     0.04291
  
  S  H  17  -0.13337    -0.02261    -0.06272     0.06131    -0.12465     0.00827
  
  S  H  18  -0.08658     0.14205    -0.12977    -0.17680     0.00007    -0.11803
  
  S  H  19   0.04617    -0.00543     0.11556    -0.01484    -0.20760     0.02088
  
  S  H  20   0.06978    -0.00042    -0.10259     0.02229    -0.22519    -0.03002
  
  S  C  21   0.28615    -0.01548    -0.17003    -0.12691    -0.13430    -0.00257
 PX  C  21   0.01372     0.15015    -0.11381     0.14034    -0.05872     0.15678
 PY  C  21   0.01570     0.08151    -0.08309     0.04913     0.08758     0.14900
 PZ  C  21   0.00194     0.00339    -0.00375     0.00230    -0.00295     0.00293
  
  S  C  22   0.15299     0.29678    -0.17688     0.25807    -0.00604     0.18748
 PX  C  22   0.00093     0.03342    -0.02091     0.10207    -0.04557     0.03244
 PY  C  22  -0.13137     0.07339     0.14327     0.12446     0.08079    -0.09431
 PZ  C  22  -0.00012     0.00084    -0.00022     0.00288    -0.00186    -0.00029
  
  S  C  23  -0.18343     0.24698     0.22158     0.20121     0.05244    -0.19924
 PX  C  23   0.10351     0.10621    -0.08717     0.17918     0.01991     0.06556
 PY  C  23  -0.07276    -0.03266     0.10631    -0.00938    -0.05015    -0.14706
 PZ  C  23   0.00065     0.00530     0.00043     0.00820    -0.00021    -0.00216
  
  S  C  24  -0.28112    -0.09121     0.15410    -0.16054    -0.09978    -0.06079
 PX  C  24  -0.03780     0.13760     0.14754     0.07375     0.09106    -0.17278
 PY  C  24  -0.02368     0.08085     0.09115     0.07240    -0.06838    -0.14996
 PZ  C  24  -0.00515     0.00269     0.00616     0.00176    -0.00147    -0.00729
  
  S  H  25   0.13150    -0.00664    -0.06948    -0.04815    -0.13548    -0.03610
  
  S  H  26   0.07409     0.16621    -0.09876     0.19141    -0.02841     0.11421
  
  S  H  27  -0.09695     0.13386     0.13967     0.14622     0.00625    -0.16026
  
  S  H  28  -0.13908    -0.04111     0.08188    -0.06370    -0.11798    -0.06429
  
  S  C  29   0.09744    -0.23774     0.09684    -0.11392     0.10997    -0.14757
 PX  C  29   0.11589    -0.00650    -0.06543    -0.16800    -0.12509    -0.06519
 PY  C  29   0.00737    -0.03665    -0.13536    -0.06767     0.14409     0.17220
 PZ  C  29   0.00152     0.00424    -0.00434    -0.00135    -0.00666     0.00101
  
  S  C  30  -0.06514    -0.26548    -0.13507    -0.08656     0.07571     0.21570
 PX  C  30  -0.04502    -0.03976     0.10987    -0.16588     0.08762    -0.03334
 PY  C  30  -0.09463    -0.01169    -0.02366    -0.09803    -0.19350     0.05909
 PZ  C  30  -0.00183    -0.00656    -0.00310    -0.00226     0.00313     0.00499




    ROOT NO.   13          14          15          16          17          18

           -25.19777   -23.77646   -22.84524   -21.49144   -20.55946   -19.08242
  
  
  S  C   1   0.04099     0.13641    -0.00071     0.18292    -0.05164     0.00740
 PX  C   1  -0.01490    -0.23684     0.01051    -0.03743     0.21512     0.17507
 PY  C   1   0.11196    -0.00859    -0.19066    -0.10226    -0.14662     0.18620
 PZ  C   1   0.00005    -0.01298    -0.00370    -0.01412     0.00888     0.01685
  
  S  C   2  -0.15799    -0.17126     0.12280    -0.14234     0.11956     0.01248
 PX  C   2  -0.11739     0.03843     0.05548    -0.16763    -0.12876    -0.15599
 PY  C   2   0.14348    -0.00710    -0.20476    -0.06343    -0.17653     0.07192
 PZ  C   2  -0.00517    -0.00147     0.00379    -0.00947     0.00016    -0.00357
  
  S  C   3   0.06742     0.09935    -0.02625    -0.08916    -0.06922    -0.15338
 PX  C   3  -0.17053     0.16097     0.16068     0.10945    -0.00623    -0.00304
 PY  C   3   0.21819     0.08427    -0.02960     0.12622     0.14917    -0.07701
 PZ  C   3  -0.00237     0.00261     0.00354     0.00035     0.00006    -0.00145
  
  S  C   4   0.16007     0.08882    -0.02974     0.09652    -0.03609    -0.15130
 PX  C   4   0.07444     0.16325     0.04540    -0.17120     0.09928    -0.08132
 PY  C   4  -0.20371     0.08990     0.14543    -0.01649    -0.07614     0.02907
 PZ  C   4  -0.00843     0.00291     0.00734     0.00033    -0.00414    -0.00221
  
  S  C   5  -0.15463    -0.17946     0.13083     0.10232     0.13790     0.01957
 PX  C   5   0.12440     0.00904    -0.12364     0.18162    -0.18586    -0.01709
 PY  C   5  -0.14284     0.03862     0.16583     0.09256    -0.01960    -0.17812
 PZ  C   5  -0.01092     0.00274     0.01376     0.00214     0.00168    -0.01552
  
  S  C   6  -0.02686     0.13073    -0.00758    -0.16106    -0.05145     0.00180
 PX  C   6   0.10837    -0.14331    -0.14909     0.12296     0.00640     0.26510
 PY  C   6  -0.11078    -0.19681     0.11144    -0.08204     0.26247     0.04434
 PZ  C   6  -0.00794    -0.00646     0.00776    -0.01344     0.01428    -0.00050
  
  S  C   7  -0.14492     0.09200    -0.03980     0.21539    -0.06415     0.15877
 PX  C   7   0.02095    -0.15314    -0.16056     0.06624     0.01514     0.15421
 PY  C   7   0.14093    -0.09298     0.03379     0.01743     0.21945    -0.01114
 PZ  C   7  -0.00108    -0.00386    -0.00317     0.00196    -0.00104     0.00678
  
  S  C   8  -0.12000     0.10697    -0.07466    -0.20133    -0.09042     0.15112
 PX  C   8   0.06040    -0.13921    -0.06907    -0.09047     0.18404     0.08894
 PY  C   8  -0.10172    -0.07730    -0.15283    -0.03720    -0.11116     0.14098
 PZ  C   8  -0.00668    -0.00444    -0.00554    -0.00287    -0.00731     0.00837
  
  S  C   9  -0.02494    -0.21535     0.02166    -0.01193     0.00133     0.00982
 PX  C   9   0.00265    -0.05868     0.13619     0.19227    -0.14410    -0.16606
 PY  C   9  -0.02939     0.05612    -0.20728     0.10649    -0.09012    -0.08422
 PZ  C   9  -0.00347    -0.00181    -0.00546     0.00154    -0.00727     0.00014
  
  S  C  10   0.03138    -0.22436     0.04313     0.00181     0.00305    -0.00005
 PX  C  10  -0.00185     0.03299    -0.12643    -0.15757    -0.17513    -0.15125
 PY  C  10  -0.01670    -0.06270     0.20004    -0.09639    -0.09663    -0.09019
 PZ  C  10  -0.00080    -0.00230     0.00159    -0.00462    -0.00546    -0.00112
  
  S  C  11   0.11948     0.10209    -0.08644    -0.21012     0.05720    -0.15445
 PX  C  11   0.05539     0.16644     0.04782     0.04551     0.18987     0.07002
 PY  C  11  -0.08961     0.08098     0.16980     0.04067    -0.09605     0.13239
 PZ  C  11   0.00281     0.00509     0.00440     0.00011     0.00325     0.00270
  
  S  H  12   0.12618     0.05537    -0.12863    -0.10966     0.14230    -0.13749
  
  S  C  13   0.11609     0.09220    -0.06015     0.20729     0.08091    -0.14876
 PX  C  13   0.01791     0.15133     0.17355    -0.07153     0.00797     0.14467
 PY  C  13   0.12914     0.11090    -0.05216    -0.03497     0.21426    -0.00420
 PZ  C  13  -0.00377    -0.00300    -0.00166    -0.00303    -0.00370     0.00298
  
  S  H  14  -0.14414     0.05074    -0.09165     0.11343    -0.15349     0.14073
  
  S  H  15  -0.03128     0.15735     0.10066     0.16885    -0.02387    -0.18728
  
  S  H  16  -0.19410    -0.07170     0.19829    -0.07883     0.13226    -0.08811
  
  S  H  17  -0.19792    -0.06852     0.19640     0.05327     0.10383    -0.09583
  
  S  H  18  -0.08144     0.15833     0.09538    -0.17065    -0.02992    -0.19985
  
  S  H  19  -0.14063     0.05898    -0.09268    -0.08420    -0.17319     0.12674
  
  S  H  20   0.12847     0.06511    -0.11244     0.10131     0.16451    -0.12673
  
  S  C  21   0.16957    -0.17543     0.13654     0.11779    -0.10791    -0.02315
 PX  C  21   0.13095    -0.01887     0.14018    -0.15767    -0.20017    -0.03217
 PY  C  21  -0.14317    -0.04822    -0.16010    -0.09494    -0.04773    -0.15733
 PZ  C  21   0.00516    -0.00140     0.00523    -0.00036    -0.00427     0.00117
  
  S  C  22   0.02311     0.12324    -0.00552    -0.16468     0.02454    -0.00229
 PX  C  22   0.11399     0.14765     0.16167    -0.12119    -0.00381     0.25171
 PY  C  22  -0.11761     0.19974    -0.11897     0.05119     0.25246     0.05368
 PZ  C  22   0.00442     0.00482     0.00673    -0.00059    -0.00003     0.01122
  
  S  C  23  -0.04503     0.11592    -0.00969     0.17173     0.06341    -0.01542
 PX  C  23  -0.01902     0.23770    -0.00991     0.01353     0.20161     0.17065
 PY  C  23   0.11975     0.01237     0.20218     0.12618    -0.11470     0.17731
 PZ  C  23   0.00226     0.01087     0.00566     0.00644     0.00549     0.01464
  
  S  C  24   0.15278    -0.16119     0.11582    -0.13249    -0.11635    -0.01447
 PX  C  24  -0.11719    -0.05664    -0.06374     0.17967    -0.10146    -0.15983
 PY  C  24   0.15187     0.00235     0.21138     0.07994    -0.14843     0.06806
 PZ  C  24   0.00475    -0.00114     0.00896     0.00625    -0.00866     0.00386
  
  S  H  25   0.20711    -0.06668     0.20321     0.05930    -0.09045     0.07161
  
  S  H  26   0.08014     0.16385     0.10205    -0.16958     0.01616     0.19211
  
  S  H  27   0.03618     0.14169     0.10933     0.17176     0.03217     0.17317
  
  S  H  28   0.20020    -0.06465     0.20162    -0.07332    -0.11723     0.08844
  
  S  C  29  -0.13269     0.10358    -0.01487     0.08878     0.05802     0.15149
 PX  C  29   0.07897    -0.15613    -0.05218     0.16597     0.11835    -0.06266
 PY  C  29  -0.20800    -0.10078    -0.12658     0.04014    -0.08701     0.04435
 PZ  C  29   0.00721    -0.00548     0.00230     0.00473     0.00132    -0.00310
  
  S  C  30  -0.08684     0.10616    -0.01964    -0.09403     0.04478     0.15240
 PX  C  30  -0.15956    -0.15589    -0.15869    -0.09987    -0.02093    -0.00073
 PY  C  30   0.20031    -0.07167     0.00544    -0.14221     0.13132    -0.07808
 PZ  C  30  -0.00358     0.00216     0.00044     0.00124    -0.00223     0.00552




    ROOT NO.   19          20          21          22          23          24

           -18.32456   -17.25772   -17.06954   -16.67860   -15.81359   -15.35364
  
  
  S  C   1  -0.16190     0.01327    -0.05960     0.09922     0.04470     0.05857
 PX  C   1   0.08520    -0.15585     0.00508     0.02196     0.15815     0.16663
 PY  C   1   0.14183     0.18747    -0.02868    -0.10165     0.15144     0.08616
 PZ  C   1   0.02595    -0.00098     0.00612    -0.01803     0.01662     0.02438
  
  S  C   2   0.16510     0.01676     0.00511    -0.06966    -0.01161     0.02675
 PX  C   2   0.09148     0.17373     0.02112    -0.10075    -0.17630    -0.16664
 PY  C   2  -0.01957     0.11753    -0.21433     0.18869    -0.07729     0.23498
 PZ  C   2   0.01483     0.00673     0.01267    -0.02180    -0.00589    -0.00039
  
  S  C   3  -0.04579    -0.04565    -0.15564     0.15174    -0.06794     0.00205
 PX  C   3  -0.16914     0.02291    -0.02222     0.01381     0.25694    -0.08742
 PY  C   3  -0.05724    -0.27038     0.10694    -0.00024     0.00448    -0.08602
 PZ  C   3   0.00147     0.00460     0.00792    -0.01032    -0.00714     0.01982
  
  S  C   4   0.04928    -0.04795     0.17927    -0.13961    -0.08739    -0.04771
 PX  C   4   0.12969    -0.19201     0.00599     0.08055     0.07659     0.15477
 PY  C   4   0.10153     0.17346     0.05916    -0.11562     0.16990     0.10269
 PZ  C   4   0.00272     0.01177    -0.00656    -0.00112    -0.01083     0.03467
  
  S  C   5  -0.17292     0.00513    -0.01236     0.06581    -0.00169    -0.01761
 PX  C   5  -0.02330     0.17765     0.08391    -0.18157    -0.11480    -0.15489
 PY  C   5  -0.08790     0.08118    -0.18832     0.14899    -0.18395     0.21632
 PZ  C   5  -0.00447     0.00475    -0.02596     0.02112    -0.02585     0.05106
  
  S  C   6   0.15563     0.01539     0.05489    -0.10144     0.05801    -0.03458
 PX  C   6  -0.17287     0.06535     0.00820     0.03764     0.25332    -0.06772
 PY  C   6  -0.00597    -0.23336     0.08571     0.04004     0.07304    -0.07430
 PZ  C   6   0.01301    -0.01323     0.00065    -0.00035    -0.00359     0.02318
  
  S  C   7  -0.09132    -0.03575     0.04740    -0.03839     0.07680    -0.00086
 PX  C   7   0.15568    -0.03248     0.13688    -0.11014    -0.19567     0.08188
 PY  C   7   0.11484    -0.07891    -0.28014     0.05251    -0.03127    -0.10666
 PZ  C   7   0.00344     0.00527     0.01446    -0.01141    -0.01260     0.02731
  
  S  C   8   0.10633    -0.03166    -0.02061     0.04680     0.08768     0.01652
 PX  C   8  -0.16368    -0.05246     0.15148     0.04719    -0.12869     0.01548
 PY  C   8  -0.06034    -0.04338    -0.26631     0.15455    -0.04716    -0.17199
 PZ  C   8  -0.00459     0.00208    -0.02177     0.01150    -0.01364     0.01639
  
  S  C   9  -0.14431     0.14935     0.14539     0.01178    -0.10125     0.05172
 PX  C   9   0.02602     0.13440    -0.05177    -0.05973     0.03947     0.00029
 PY  C   9  -0.06681    -0.21235     0.10242     0.03424    -0.11385    -0.02553
 PZ  C   9  -0.00588    -0.00226    -0.00144     0.00003    -0.01654     0.02889
  
  S  C  10   0.13321     0.08891    -0.21229    -0.05123    -0.05212    -0.08550
 PX  C  10   0.04910    -0.14249    -0.00371     0.03526    -0.03934    -0.05410
 PY  C  10  -0.08743     0.23652     0.04804    -0.01454     0.09465     0.04530
 PZ  C  10  -0.00366     0.00899     0.00746    -0.00533    -0.00879     0.03360
  
  S  C  11  -0.09778    -0.02183     0.02608     0.05266     0.09135     0.00888
 PX  C  11  -0.18014     0.10325     0.12445     0.00974     0.11126     0.08783
 PY  C  11  -0.06942    -0.06682    -0.18891    -0.19152     0.14167    -0.17890
 PZ  C  11  -0.00742     0.00795     0.00363    -0.00709     0.00065     0.03083
  
  S  H  12  -0.06400     0.07727     0.22104     0.18038    -0.01530     0.18101
  
  S  C  13   0.08994    -0.04213    -0.00521    -0.04885     0.07489     0.03255
 PX  C  13   0.15736     0.09454     0.08809     0.15424     0.13446     0.16361
 PY  C  13   0.11048    -0.03055    -0.22968    -0.13122     0.10830    -0.08902
 PZ  C  13  -0.00428    -0.00433    -0.00405    -0.00603    -0.01262     0.02701
  
  S  H  14  -0.06274     0.02697     0.30111    -0.10412    -0.01826     0.12166
  
  S  H  15  -0.21478    -0.05211    -0.01259     0.11334    -0.16465    -0.11657
  
  S  H  16   0.12716    -0.01494     0.18089    -0.22039    -0.01433    -0.23735
  
  S  H  17  -0.13898     0.00431    -0.19701     0.22032    -0.09664     0.22259
  
  S  H  18   0.21706    -0.04791     0.02076    -0.08277    -0.19065     0.04206
  
  S  H  19   0.07700    -0.02659    -0.28518     0.12031     0.07160    -0.11755
  
  S  H  20   0.06163    -0.08567    -0.21965    -0.19029     0.07124    -0.11833
  
  S  C  21   0.16141     0.01858    -0.00360     0.05849     0.00122     0.01668
 PX  C  21  -0.01308    -0.14170     0.11936     0.21240     0.18274    -0.11494
 PY  C  21  -0.09438    -0.17048    -0.06189    -0.19145     0.11325     0.27512
 PZ  C  21   0.00401    -0.00109     0.00015    -0.00166    -0.00487     0.02647
  
  S  C  22  -0.15245    -0.01764    -0.02738    -0.10971     0.04036     0.05777
 PX  C  22  -0.14884    -0.06758     0.01986    -0.02000    -0.23428    -0.15037
 PY  C  22  -0.00837     0.26165    -0.03442    -0.01578    -0.06843    -0.10618
 PZ  C  22   0.00036    -0.00326    -0.00189    -0.00565    -0.01774     0.02152
  
  S  C  23   0.15890     0.04524     0.02529     0.10763     0.06742    -0.03389
 PX  C  23   0.08263     0.14792    -0.06719    -0.02873    -0.18663     0.09253
 PY  C  23   0.16213    -0.18335     0.03219     0.09807    -0.15780     0.02943
 PZ  C  23   0.01228    -0.00158    -0.00596    -0.00670    -0.02198     0.03648
  
  S  C  24  -0.17073     0.01003     0.00208    -0.06109    -0.01073    -0.04081
 PX  C  24   0.09749    -0.13951     0.08141     0.11096     0.21463    -0.08362
 PY  C  24  -0.02541    -0.19043    -0.08612    -0.24389    -0.00063     0.24955
 PZ  C  24   0.00312    -0.01456    -0.00688    -0.01945    -0.00632     0.04692
  
  S  H  25   0.13879     0.08091     0.10052     0.26630    -0.00550    -0.24910
  
  S  H  26  -0.19604    -0.05868     0.00200    -0.07326    -0.18672    -0.10424
  
  S  H  27   0.22609    -0.04944     0.00672     0.11171    -0.16585     0.05069
  
  S  H  28  -0.13954    -0.08214    -0.10181    -0.26470    -0.09167     0.20786
  
  S  C  29  -0.04847    -0.10032    -0.09867    -0.17090    -0.08217     0.00656
 PX  C  29   0.12010     0.20299    -0.06580    -0.08850    -0.14616     0.11897
 PY  C  29   0.12420    -0.15639     0.06515     0.09390    -0.21147     0.05384
 PZ  C  29   0.00681     0.01076    -0.00104    -0.00730    -0.00801     0.04430
  
  S  C  30   0.06210     0.00777     0.11351     0.20203    -0.07826    -0.02678
 PX  C  30  -0.16004    -0.05101    -0.02842    -0.03155    -0.19806    -0.18620
 PY  C  30  -0.07214     0.29695    -0.01392     0.04135     0.02079    -0.09823
 PZ  C  30   0.00488    -0.00708    -0.00096    -0.00706    -0.00994     0.04590




    ROOT NO.   25          26          27          28          29          30

           -14.92045   -14.85676   -14.71841   -14.69890   -13.47027   -13.38770
  
  
  S  C   1  -0.02074    -0.04489    -0.00478     0.01186     0.00056    -0.05771
 PX  C   1   0.29477    -0.02950    -0.04754    -0.05616     0.03859    -0.14040
 PY  C   1   0.03984    -0.03102     0.27391    -0.02649    -0.00900    -0.11219
 PZ  C   1   0.06088     0.01606     0.04609     0.10010    -0.21383    -0.07009
  
  S  C   2   0.05165    -0.00638     0.08164    -0.02190     0.00892     0.03391
 PX  C   2  -0.26638     0.03102     0.08253     0.03026    -0.00954     0.18303
 PY  C   2   0.05575    -0.18096    -0.02726    -0.01008     0.04604     0.08671
 PZ  C   2   0.02713     0.03040     0.04240     0.14816    -0.24122    -0.04991
  
  S  C   3  -0.02589     0.03345    -0.05399    -0.00232     0.00814    -0.02616
 PX  C   3  -0.07787     0.12416     0.08052    -0.01066     0.02770    -0.26389
 PY  C   3   0.10488     0.10820    -0.12164     0.00726    -0.05782    -0.06499
 PZ  C   3   0.04757     0.04033     0.04197     0.25985    -0.29315    -0.06058
  
  S  C   4   0.05598    -0.01303    -0.03904    -0.00585     0.00511    -0.01683
 PX  C   4   0.08821    -0.08770    -0.10092    -0.00115     0.03848    -0.15009
 PY  C   4  -0.02575    -0.10523     0.13132    -0.03183     0.10291    -0.16054
 PZ  C   4   0.05636     0.03483     0.05127     0.26273    -0.30038    -0.06132
  
  S  C   5  -0.10963    -0.02793     0.01836     0.02365    -0.01065     0.02912
 PX  C   5  -0.01165     0.08198     0.10928    -0.00411    -0.04580     0.12566
 PY  C   5   0.11619    -0.17289     0.16922    -0.02751    -0.01676     0.05416
 PZ  C   5   0.05841    -0.00294     0.04933     0.15090    -0.25375    -0.04709
  
  S  C   6   0.01840     0.04513     0.02712    -0.01858     0.02307    -0.04570
 PX  C   6  -0.26183     0.03020     0.03640     0.04272     0.01490    -0.11807
 PY  C   6  -0.01788     0.06852    -0.27218     0.00381     0.05811    -0.01408
 PZ  C   6   0.05189     0.01209     0.01900     0.10794    -0.21974    -0.05202
  
  S  C   7   0.09135     0.00439    -0.00546    -0.01384    -0.00905     0.02101
 PX  C   7   0.12587    -0.13097    -0.05144    -0.00840    -0.02373     0.27895
 PY  C   7   0.01999     0.22335     0.24154    -0.05557    -0.00595     0.12391
 PZ  C   7   0.04439     0.03218     0.02208     0.25602    -0.14410    -0.02010
  
  S  C   8  -0.04361     0.01038    -0.07423     0.00603     0.00625     0.01987
 PX  C   8  -0.18947    -0.19376     0.02603     0.06999    -0.06406     0.18370
 PY  C   8   0.01486     0.26182    -0.10291    -0.02175    -0.06600     0.15518
 PZ  C   8   0.04682     0.06280     0.02595     0.25832    -0.16320    -0.02234
  
  S  C   9  -0.01002    -0.00509     0.00419    -0.00850    -0.00831     0.00261
 PX  C   9   0.20770     0.19687    -0.01312    -0.07853     0.05491    -0.19045
 PY  C   9   0.12883     0.10767    -0.00088    -0.05352     0.00395    -0.10426
 PZ  C   9   0.05245     0.07274     0.02542     0.33251    -0.00933    -0.01337
  
  S  C  10  -0.01752    -0.01060    -0.01014     0.00568     0.01364     0.00228
 PX  C  10  -0.10695    -0.14232    -0.20611     0.05866     0.01662    -0.24424
 PY  C  10  -0.06826    -0.07619    -0.11733     0.02474     0.02157    -0.14784
 PZ  C  10   0.04384     0.05596     0.01747     0.33434     0.00210    -0.00959
  
  S  C  11  -0.07363    -0.00183     0.01906     0.01115    -0.01163    -0.03957
 PX  C  11   0.09896     0.13668     0.19545    -0.06474    -0.03201     0.22975
 PY  C  11   0.10375    -0.23143    -0.14399     0.06895    -0.04877     0.13770
 PZ  C  11   0.03395     0.05464     0.01205     0.26220     0.15390     0.03035
  
  S  H  12  -0.06852     0.22981     0.19409    -0.07112     0.02256    -0.03368
  
  S  C  13   0.04878     0.00508     0.05773    -0.00504     0.02676     0.00047
 PX  C  13  -0.08564     0.11416    -0.09902    -0.00321    -0.04968     0.25635
 PY  C  13  -0.17272    -0.28361     0.07131     0.08927     0.00560     0.06746
 PZ  C  13   0.02836     0.05730     0.01611     0.25859     0.13678     0.01091
  
  S  H  14   0.08026    -0.21673    -0.20047     0.04074    -0.01792     0.04035
  
  S  H  15  -0.19030     0.01307    -0.19459     0.04433     0.00908     0.14591
  
  S  H  16  -0.12227     0.15217     0.09122     0.01836    -0.05367     0.02465
  
  S  H  17   0.05255    -0.17111     0.10819     0.00350    -0.02832     0.00904
  
  S  H  18   0.24897    -0.00127    -0.02203    -0.04141    -0.01760     0.09025
  
  S  H  19   0.08143     0.28431    -0.11397    -0.03076    -0.02787     0.04245
  
  S  H  20  -0.07396    -0.25814     0.11379     0.06270     0.03541    -0.05942
  
  S  C  21  -0.06008    -0.00625    -0.08840     0.01132    -0.01719    -0.03729
 PX  C  21  -0.02444    -0.10834     0.06642     0.05367    -0.05015     0.11950
 PY  C  21  -0.22505     0.08795     0.05974    -0.01888    -0.05074     0.04744
 PZ  C  21   0.00514     0.04178    -0.00049     0.16613     0.26446     0.03531
  
  S  C  22   0.01955     0.03614    -0.00181    -0.01497    -0.01225     0.05627
 PX  C  22   0.15044    -0.03107     0.21766    -0.04049     0.08926    -0.11244
 PY  C  22   0.19172     0.00796    -0.18539    -0.00390     0.01963    -0.00831
 PZ  C  22   0.00028     0.03479     0.00441     0.12239     0.24497     0.02294
  
  S  C  23  -0.01495    -0.03824    -0.02464     0.01946    -0.01609     0.04574
 PX  C  23  -0.16638     0.05782    -0.22428     0.00744    -0.06905    -0.14354
 PY  C  23  -0.20805    -0.02669     0.17486     0.00349     0.00548    -0.13574
 PZ  C  23  -0.02217     0.03971    -0.01050     0.12130     0.23201     0.01767
  
  S  C  24   0.10514     0.01409    -0.01155    -0.01971     0.00616    -0.02186
 PX  C  24   0.11418    -0.07490     0.21703    -0.00232     0.04390     0.17392
 PY  C  24  -0.06654     0.12771    -0.05226    -0.05422    -0.04278     0.10807
 PZ  C  24  -0.00460     0.05163    -0.00284     0.15391     0.24731     0.04167
  
  S  H  25   0.13575    -0.11129    -0.05619     0.04477     0.01617    -0.00565
  
  S  H  26   0.14804    -0.00738     0.19470    -0.04130     0.08819    -0.08304
  
  S  H  27  -0.24900    -0.01188     0.02472     0.02398    -0.02039    -0.15959
  
  S  H  28  -0.05070     0.13510    -0.13711    -0.03996    -0.03339    -0.00280
  
  S  C  29   0.01505    -0.03250     0.04930     0.00382     0.01743     0.03027
 PX  C  29  -0.01893     0.12160    -0.11088    -0.05608     0.02992    -0.14862
 PY  C  29  -0.10989     0.06107     0.11818    -0.02251     0.05143    -0.16243
 PZ  C  29   0.02028     0.07010    -0.00229     0.26970     0.30769     0.04175
  
  S  C  30  -0.05224     0.02278     0.04574    -0.01057    -0.02380     0.01106
 PX  C  30   0.03448    -0.11250     0.10065     0.02101     0.04756    -0.25743
 PY  C  30   0.05401    -0.03049    -0.14146     0.02982    -0.00409    -0.07707
 PZ  C  30   0.01359     0.06946     0.00807     0.26115     0.29172     0.04463




    ROOT NO.   31          32          33          34          35          36

           -13.10107   -12.86915   -12.22018   -11.82053   -11.76922   -11.26835
  
  
  S  C   1   0.01624    -0.01671     0.00641    -0.00709     0.01077    -0.00968
 PX  C   1  -0.09068     0.18438    -0.12526     0.02118     0.01474    -0.14015
 PY  C   1   0.25232     0.08552     0.18037    -0.01849    -0.08226    -0.04410
 PZ  C   1   0.00826     0.00236     0.01050    -0.18178     0.24569     0.03756
  
  S  C   2   0.01698     0.00541    -0.03245     0.03339     0.00818     0.03408
 PX  C   2   0.07158    -0.18607     0.08216     0.01565    -0.02369     0.16026
 PY  C   2  -0.16203    -0.11602    -0.20465     0.07526     0.08403     0.10451
 PZ  C   2  -0.00057    -0.04042     0.01522    -0.14125     0.19128     0.05744
  
  S  C   3  -0.00222    -0.03176     0.00790    -0.00225     0.00500    -0.02127
 PX  C   3   0.04643     0.11698    -0.14404     0.04647     0.08125    -0.21023
 PY  C   3   0.09635     0.13191     0.27257    -0.13301    -0.12789    -0.09008
 PZ  C   3  -0.03851    -0.07075    -0.02276    -0.04124     0.08150     0.03726
  
  S  C   4  -0.00395     0.03577     0.00700     0.00441    -0.00626     0.01515
 PX  C   4   0.08247    -0.20672     0.21089    -0.02631    -0.09271     0.22390
 PY  C   4  -0.02396    -0.13309    -0.23874     0.15228     0.11250     0.12188
 PZ  C   4  -0.03850    -0.07047    -0.04260    -0.03966     0.08812     0.02266
  
  S  C   5   0.02389    -0.01063    -0.02461     0.01037     0.02704    -0.03687
 PX  C   5  -0.07039     0.23556    -0.18578     0.01537     0.07740    -0.20991
 PY  C   5   0.17629     0.13187     0.14317    -0.01811    -0.07645    -0.07770
 PZ  C   5   0.00528    -0.02957     0.01291    -0.15196     0.20085     0.03921
  
  S  C   6   0.01823    -0.00344     0.01386     0.01499    -0.02707     0.01783
 PX  C   6   0.13017    -0.21934     0.14093    -0.00973    -0.03354     0.13700
 PY  C   6  -0.23233    -0.13292    -0.16317     0.04200     0.04845     0.08416
 PZ  C   6  -0.01919    -0.02130    -0.01024    -0.18466     0.26311     0.05067
  
  S  C   7   0.00833     0.07249    -0.02964     0.04210     0.03089     0.01555
 PX  C   7  -0.02234    -0.07753     0.12223    -0.01827    -0.06179     0.22213
 PY  C   7   0.12627    -0.02166    -0.12197     0.16467     0.09681     0.12296
 PZ  C   7  -0.04301    -0.05430    -0.01503     0.08981    -0.10422     0.00560
  
  S  C   8  -0.00339    -0.07845    -0.00830     0.03009     0.03765    -0.01004
 PX  C   8   0.13302     0.09341    -0.03971     0.05007     0.08788    -0.24149
 PY  C   8  -0.07500     0.14780     0.12308    -0.14081    -0.07549    -0.12690
 PZ  C   8  -0.03920    -0.03920    -0.03305     0.07849    -0.10713    -0.03818
  
  S  C   9  -0.02528     0.06661    -0.00655    -0.00526    -0.00044    -0.00946
 PX  C   9  -0.14286    -0.03266     0.05196    -0.07543    -0.10956     0.24380
 PY  C   9   0.24479     0.00437    -0.01923     0.25265     0.16087     0.12616
 PZ  C   9  -0.02105    -0.02632    -0.04563     0.21206    -0.25477    -0.06169
  
  S  C  10  -0.04910    -0.04440     0.00612    -0.01297    -0.00015    -0.00589
 PX  C  10   0.15090    -0.04390     0.03686     0.09113     0.11689    -0.23120
 PY  C  10  -0.22790     0.03555     0.06255    -0.25110    -0.14886    -0.12087
 PZ  C  10  -0.03744    -0.02826    -0.02106     0.20685    -0.24593    -0.04870
  
  S  C  11   0.00555     0.07282    -0.00066     0.03376     0.03068    -0.01721
 PX  C  11  -0.12792     0.09937    -0.02892    -0.05974    -0.08519     0.22928
 PY  C  11   0.05248     0.12840     0.09224     0.16115     0.09480     0.10554
 PZ  C  11  -0.00679     0.02065     0.01388     0.11246    -0.10920    -0.01359
  
  S  H  12  -0.09493    -0.03189    -0.09745    -0.17501    -0.12730     0.00599
  
  S  C  13   0.00225    -0.08420     0.01637     0.05183     0.02769     0.01123
 PX  C  13   0.00013    -0.08899     0.09709     0.04785     0.09020    -0.23067
 PY  C  13  -0.14414    -0.00201    -0.05040    -0.20026    -0.11023    -0.12463
 PZ  C  13   0.00963     0.01131    -0.02939     0.09639    -0.14481    -0.04007
  
  S  H  14  -0.11230     0.01396     0.15934    -0.14759    -0.12170     0.01382
  
  S  H  15  -0.15447    -0.17784    -0.08252     0.01923     0.04057     0.11153
  
  S  H  16   0.17680     0.02360     0.21771    -0.06185    -0.08159    -0.00290
  
  S  H  17   0.19147     0.01143     0.21203    -0.04499    -0.08063     0.00801
  
  S  H  18  -0.12402     0.21266    -0.13790     0.00267     0.03991    -0.13241
  
  S  H  19  -0.12735     0.03277     0.13239    -0.14527    -0.11655     0.01439
  
  S  H  20  -0.11858    -0.00385    -0.08313    -0.19412    -0.13804     0.00692
  
  S  C  21   0.02251     0.01430     0.01880     0.02880     0.01762    -0.03461
 PX  C  21   0.09125     0.20221    -0.15689    -0.06945    -0.10005     0.19013
 PY  C  21  -0.16610     0.16092     0.11930     0.10385     0.04600     0.06608
 PZ  C  21   0.03409     0.06033     0.04751    -0.13426     0.19288     0.04760
  
  S  C  22   0.00952     0.00078    -0.00379     0.00305     0.00030     0.01695
 PX  C  22  -0.15762    -0.20279     0.11548     0.02649     0.05032    -0.12589
 PY  C  22   0.22203    -0.16202    -0.13395    -0.09945    -0.04610    -0.07316
 PZ  C  22   0.03065     0.05665     0.04881    -0.19380     0.25384     0.06550
  
  S  C  23   0.01627     0.00970    -0.00896    -0.00204    -0.00556    -0.01527
 PX  C  23   0.12911     0.20767    -0.11269     0.00003    -0.07999     0.14630
 PY  C  23  -0.23529     0.13530     0.13998     0.09934     0.04134     0.04356
 PZ  C  23   0.04417     0.07739     0.02410    -0.20606     0.23352     0.07686
  
  S  C  24   0.01207    -0.01814     0.02241     0.03644     0.01636     0.02804
 PX  C  24  -0.10811    -0.21584     0.07775    -0.01755     0.04978    -0.17225
 PY  C  24   0.15894    -0.14821    -0.15613    -0.11877    -0.08255    -0.10085
 PZ  C  24   0.05560     0.04463     0.00227    -0.16989     0.15775     0.03112
  
  S  H  25   0.19482    -0.03412    -0.18103    -0.12826    -0.08857     0.02270
  
  S  H  26  -0.14528    -0.20067     0.11340     0.01848     0.05817    -0.12401
  
  S  H  27  -0.12700     0.22801     0.06252     0.07088     0.00812     0.11576
  
  S  H  28   0.18990    -0.03362    -0.16794    -0.10168    -0.08618     0.01084
  
  S  C  29  -0.01273    -0.02701     0.00117     0.00147    -0.00255     0.02117
 PX  C  29  -0.09242    -0.17589     0.17123     0.09067     0.11269    -0.20708
 PY  C  29   0.05390    -0.13188    -0.18580    -0.21536    -0.13355    -0.10148
 PZ  C  29   0.02765     0.04753     0.04416    -0.01691     0.05972    -0.00309
  
  S  C  30   0.00411     0.03548    -0.01976    -0.00476    -0.00295    -0.01404
 PX  C  30  -0.01800     0.13475    -0.11590    -0.08623    -0.11895     0.21781
 PY  C  30  -0.10355     0.16081     0.20955     0.21292     0.13447     0.08350
 PZ  C  30   0.04342     0.04279     0.00085    -0.04616     0.02650    -0.01202




    ROOT NO.   37          38          39          40          41          42

           -10.80015    -9.83146    -9.70235    -8.36058    -8.03169    -6.67338
  
  
  S  C   1   0.00681     0.00748     0.01500     0.00907     0.01151     0.00650
 PX  C   1   0.00480    -0.03113    -0.02095    -0.00986    -0.02515    -0.01107
 PY  C   1  -0.00838    -0.01793    -0.02701    -0.02046    -0.01510    -0.01737
 PZ  C   1   0.09561     0.23002     0.32220     0.22632     0.27334     0.20707
  
  S  C   2  -0.00210    -0.00503    -0.00486    -0.00183    -0.00420    -0.00218
 PX  C   2  -0.01823     0.01820    -0.01077    -0.01413     0.00848    -0.00708
 PY  C   2   0.01059     0.00142     0.02246     0.01876     0.00283     0.00928
 PZ  C   2   0.19641    -0.03882     0.36578     0.36214     0.01424     0.22215
  
  S  C   3   0.00531     0.00347     0.00625     0.00300     0.00678     0.00551
 PX  C   3   0.01046    -0.00364    -0.00631    -0.00850     0.00216    -0.00378
 PY  C   3  -0.00433    -0.00547    -0.00950    -0.00448    -0.00488    -0.00084
 PZ  C   3   0.22000    -0.33829     0.11019     0.07116    -0.32896    -0.16036
  
  S  C   4  -0.00211     0.00380     0.00186    -0.00108     0.00655    -0.00188
 PX  C   4  -0.01377     0.00209    -0.00130     0.00286    -0.00243     0.00371
 PY  C   4   0.00022     0.01005     0.00777     0.00024     0.01429    -0.00077
 PZ  C   4  -0.20262    -0.12229    -0.32506    -0.03019    -0.34667     0.13089
  
  S  C   5   0.00216     0.00512     0.00193    -0.00200     0.00405    -0.00196
 PX  C   5   0.00622    -0.00208    -0.00915    -0.00841    -0.00481    -0.00501
 PY  C   5   0.02641    -0.04036     0.02670     0.03790    -0.00260     0.02135
 PZ  C   5  -0.18213     0.27170    -0.23897    -0.34680    -0.01002    -0.21891
  
  S  C   6  -0.00118    -0.02561    -0.00907     0.00937    -0.01981     0.00960
 PX  C   6  -0.01303     0.01844    -0.00276    -0.00827     0.00879    -0.00395
 PY  C   6  -0.00002    -0.00763     0.00386     0.01362    -0.00919     0.01216
 PZ  C   6  -0.08350     0.40202    -0.00295    -0.24214     0.25827    -0.18168
  
  S  C   7  -0.00525     0.00084    -0.00219     0.00133    -0.00205     0.00396
 PX  C   7  -0.02529     0.01671    -0.00021     0.01244     0.00308     0.01688
 PY  C   7   0.00827    -0.00411     0.00238    -0.00587     0.00240    -0.00456
 PZ  C   7   0.33693    -0.28923     0.09749    -0.21660     0.00686    -0.37201
  
  S  C   8   0.00047     0.00317     0.00166    -0.00288     0.00064    -0.00355
 PX  C   8   0.00700    -0.00681     0.00059     0.00303     0.00240     0.00022
 PY  C   8   0.02958     0.00301     0.01963    -0.01252     0.00037    -0.02446
 PZ  C   8  -0.33357    -0.09909    -0.28774     0.20008    -0.00965     0.37320
  
  S  C   9  -0.00130    -0.00008     0.00067     0.00036    -0.00275     0.00544
 PX  C   9  -0.00428     0.00671    -0.00111    -0.00457    -0.00455     0.00132
 PY  C   9   0.00203    -0.00764    -0.00047    -0.01125    -0.01245     0.00437
 PZ  C   9  -0.28564    -0.00427    -0.00216     0.20475     0.36083     0.00598
  
  S  C  10   0.00069     0.00149     0.00382    -0.00110     0.00011    -0.00225
 PX  C  10   0.00080    -0.00818    -0.00100    -0.00117    -0.00477     0.00309
 PY  C  10  -0.00321     0.00547    -0.00209     0.00850    -0.00789    -0.00048
 PZ  C  10   0.27857    -0.01885     0.00171    -0.25495     0.34692     0.02074
  
  S  C  11  -0.00825    -0.01025     0.00366     0.00068     0.00028    -0.00823
 PX  C  11  -0.01646    -0.00184     0.00435     0.00766     0.00076    -0.01100
 PY  C  11  -0.02182    -0.01156     0.00837    -0.00073     0.00207    -0.00514
 PZ  C  11   0.34663     0.26729    -0.09493    -0.20113    -0.01084     0.37935
  
  S  H  12   0.01378     0.00952    -0.00720     0.00307    -0.00097     0.00225
  
  S  C  13  -0.02069     0.00136     0.01392     0.00693     0.00110    -0.01758
 PX  C  13  -0.00716    -0.00445     0.01154     0.00160     0.00246    -0.00763
 PY  C  13   0.01003     0.00443    -0.00424     0.00354     0.00296     0.00147
 PZ  C  13  -0.33853     0.10822     0.27491     0.20253     0.02784    -0.37343
  
  S  H  14  -0.00930     0.00146    -0.00085     0.00383    -0.00207    -0.00126
  
  S  H  15  -0.00397     0.01313     0.00525    -0.00012     0.00190    -0.00127
  
  S  H  16  -0.01064     0.00413    -0.01123    -0.00875     0.00029    -0.00324
  
  S  H  17   0.00431    -0.00770     0.00567     0.00387    -0.00044    -0.00076
  
  S  H  18   0.00725    -0.00130    -0.00134    -0.00618     0.00212    -0.00760
  
  S  H  19   0.00328     0.00106     0.00066    -0.00105    -0.00226    -0.00150
  
  S  H  20   0.01353     0.00679    -0.01122     0.00116     0.00068     0.00832
  
  S  C  21  -0.00343    -0.00181     0.00536    -0.00420     0.00196     0.00101
 PX  C  21   0.00365     0.00840    -0.00003    -0.00153    -0.00652     0.00429
 PY  C  21  -0.00891     0.00224     0.00326     0.00130    -0.00157    -0.00098
 PZ  C  21   0.18601     0.03646    -0.34812     0.35191     0.02410    -0.23673
  
  S  C  22   0.00087    -0.00161    -0.00358     0.00249     0.00344    -0.00109
 PX  C  22  -0.00857     0.00230     0.01621    -0.01168    -0.00962     0.00755
 PY  C  22   0.01236    -0.00290    -0.00685    -0.00040     0.00504     0.00175
 PZ  C  22   0.06326    -0.24598    -0.29550     0.20045     0.29102    -0.18254
  
  S  C  23   0.00247     0.00787     0.00008     0.00491    -0.00513    -0.00377
 PX  C  23   0.01300     0.03042    -0.00658     0.01829    -0.01609    -0.01414
 PY  C  23  -0.00975     0.01146     0.00847     0.00341    -0.01081    -0.00523
 PZ  C  23  -0.11741    -0.38137     0.02552    -0.23960     0.23659     0.20080
  
  S  C  24   0.00201     0.00542    -0.00582     0.00999    -0.00180    -0.00927
 PX  C  24   0.00047    -0.00991    -0.00242    -0.00139     0.01018     0.00317
 PY  C  24   0.03330     0.01412    -0.02797     0.02212     0.01274    -0.00931
 PZ  C  24  -0.21198    -0.23289     0.26818    -0.34978    -0.05452     0.22952
  
  S  H  25   0.01239     0.00200    -0.00705     0.00179    -0.00038    -0.00000
  
  S  H  26  -0.00699    -0.00738     0.00707    -0.00681     0.00072     0.00304
  
  S  H  27  -0.01029     0.00246     0.00788    -0.00426    -0.00472     0.00198
  
  S  H  28   0.01609     0.00385    -0.00789    -0.00062     0.00215     0.00409
  
  S  C  29   0.01032     0.01834    -0.00460     0.00522    -0.01601     0.00436
 PX  C  29  -0.01293    -0.01990     0.00704    -0.00546     0.01493    -0.00338
 PY  C  29   0.02560     0.01174    -0.01034     0.00499    -0.00482    -0.00278
 PZ  C  29   0.22640     0.33603    -0.10740     0.08310    -0.32900     0.11956
  
  S  C  30   0.01395    -0.00947    -0.01686    -0.00130     0.01987     0.01147
 PX  C  30   0.00057     0.00982    -0.00001     0.00031    -0.00721    -0.00200
 PY  C  30  -0.02967    -0.00439     0.02049    -0.00788    -0.01208     0.00059
 PZ  C  30  -0.21324     0.14416     0.33338    -0.03761    -0.34859    -0.14833




    ROOT NO.   43          44          45          46          47          48

            -1.03111     0.20362     0.37161     1.28349     1.36084     1.91283
  
  
  S  C   1  -0.01341    -0.00546    -0.02006    -0.02074     0.00591    -0.01269
 PX  C   1   0.01845     0.01359     0.02081     0.02349     0.00374     0.00971
 PY  C   1   0.00731     0.02473     0.00420     0.01996     0.02898     0.00115
 PZ  C   1  -0.21356    -0.27925    -0.21573    -0.33215    -0.22130    -0.08700
  
  S  C   2   0.00145     0.00453     0.00173     0.00429     0.00375     0.00232
 PX  C   2  -0.01463    -0.00164    -0.02137    -0.02036     0.00639    -0.01146
 PY  C   2   0.00531     0.00259     0.00973     0.01204     0.00081     0.00633
 PZ  C   2   0.22148     0.03323     0.35746     0.36912    -0.04814     0.18846
  
  S  C   3  -0.00525    -0.01559    -0.00467    -0.01152    -0.01739    -0.00066
 PX  C   3  -0.00159     0.00061     0.00222     0.00818    -0.00633     0.01052
 PY  C   3   0.00194    -0.00444    -0.00064    -0.00491    -0.00089    -0.00395
 PZ  C   3   0.16161     0.32914    -0.08963    -0.10447     0.34388    -0.21564
  
  S  C   4  -0.00449     0.01413     0.00225     0.01308     0.00949     0.00804
 PX  C   4  -0.00120     0.00131    -0.00274    -0.00396     0.00747    -0.00488
 PY  C   4  -0.00749     0.00843     0.00324     0.01414    -0.00186     0.01200
 PZ  C   4   0.13666    -0.34451    -0.02122    -0.34669    -0.10673    -0.20862
  
  S  C   5  -0.00365    -0.00060    -0.01082    -0.01024     0.00877    -0.00944
 PX  C   5   0.00832    -0.00853     0.01000     0.00152    -0.01803     0.00553
 PY  C   5  -0.01740    -0.00376    -0.02754    -0.02128     0.01846    -0.01478
 PZ  C   5   0.22210     0.00769     0.34646     0.22867    -0.28754     0.17875
  
  S  C   6   0.01401    -0.02053     0.02298     0.00179    -0.04017     0.01250
 PX  C   6  -0.00656     0.00777    -0.00735     0.00225     0.01346    -0.00139
 PY  C   6   0.00692    -0.01471     0.01079    -0.00271    -0.02055     0.00350
 PZ  C   6  -0.18003     0.25099    -0.24444     0.01509     0.39865    -0.08151
  
  S  C   7   0.00872     0.00507     0.01216     0.00764     0.01580    -0.01274
 PX  C   7   0.00782    -0.00654     0.00475    -0.00887     0.00555    -0.01515
 PY  C   7  -0.00663    -0.00136    -0.00189     0.00246    -0.00312     0.00276
 PZ  C   7  -0.37051    -0.01191    -0.21234     0.09544    -0.28583     0.33198
  
  S  C   8   0.00864    -0.00292     0.00198    -0.00676    -0.00729    -0.00720
 PX  C   8   0.00058     0.00212    -0.00469     0.00169    -0.00128     0.00536
 PY  C   8   0.02019     0.00253     0.00994    -0.01505    -0.00342    -0.01763
 PZ  C   8  -0.36795    -0.00327    -0.20114     0.28692     0.08591     0.32341
  
  S  C   9  -0.00683    -0.00197     0.00767     0.00602     0.00865    -0.00847
 PX  C   9  -0.00233    -0.00173     0.00553    -0.00065     0.00248    -0.00599
 PY  C   9  -0.00893    -0.00750    -0.00339     0.00211     0.00160     0.00902
 PZ  C   9   0.00279     0.37339     0.19308    -0.00282    -0.00403    -0.28486
  
  S  C  10   0.00209     0.00281    -0.00809    -0.00610    -0.00796     0.01159
 PX  C  10   0.00305     0.00471    -0.00415     0.00354     0.00226     0.00178
 PY  C  10   0.00746     0.00847    -0.00287    -0.00103     0.00117     0.00294
 PZ  C  10  -0.01843    -0.33268     0.28271    -0.00287     0.02390    -0.29557
  
  S  C  11  -0.00855    -0.00477     0.00998    -0.00167     0.00708     0.00342
 PX  C  11  -0.01004    -0.00076     0.00634    -0.00219    -0.00472    -0.00214
 PY  C  11  -0.00491    -0.00348     0.00561    -0.00410     0.00377     0.00488
 PZ  C  11   0.37309    -0.02029    -0.19429    -0.08820     0.26011     0.34666
  
  S  H  12   0.00542     0.00336    -0.00545     0.00172    -0.00296    -0.00197
  
  S  C  13   0.01597    -0.00995    -0.01725    -0.00355    -0.00993     0.01271
 PX  C  13   0.00543    -0.00845    -0.00570     0.01030    -0.00146    -0.01160
 PY  C  13   0.00203     0.00008     0.00105    -0.00033     0.00124     0.00009
 PZ  C  13   0.36914    -0.02938    -0.19411    -0.26917    -0.09559     0.33817
  
  S  H  14  -0.00432    -0.00234    -0.00771    -0.00443    -0.00996     0.01080
  
  S  H  15   0.00861     0.00740     0.01468     0.01987     0.00157     0.01028
  
  S  H  16   0.00124     0.00078     0.00200     0.00310     0.00213    -0.00032
  
  S  H  17   0.00338     0.00402     0.00750     0.00937    -0.00347     0.00675
  
  S  H  18  -0.00334     0.01588    -0.00822     0.00641     0.02682    -0.00474
  
  S  H  19  -0.00358     0.00058    -0.00355     0.00425     0.00529     0.00595
  
  S  H  20  -0.00618     0.00544     0.00761     0.00568     0.00398    -0.01319
  
  S  C  21   0.00568    -0.00488    -0.00155    -0.00012     0.01167     0.01050
 PX  C  21  -0.00028     0.00175    -0.00769     0.01074    -0.00648    -0.01125
 PY  C  21  -0.00098    -0.00036     0.00170    -0.00133     0.00232     0.00209
 PZ  C  21  -0.23923     0.04635     0.35026    -0.33690     0.04218     0.18521
  
  S  C  22   0.00256     0.00247    -0.00490     0.00237    -0.01121    -0.00891
 PX  C  22  -0.00659     0.00795     0.00787    -0.01000    -0.00298     0.00492
 PY  C  22   0.00527     0.00164    -0.00648     0.00319    -0.00574    -0.00331
 PZ  C  22   0.19252    -0.29549    -0.19230     0.29284     0.23947    -0.06068
  
  S  C  23  -0.00782    -0.00492     0.01441    -0.00869     0.02262     0.01691
 PX  C  23  -0.00859    -0.01472     0.00649     0.00747     0.01544    -0.00166
 PY  C  23  -0.00708    -0.00697     0.00833    -0.00081     0.01173     0.00341
 PZ  C  23   0.20181     0.22630    -0.24561     0.01093    -0.38382    -0.11916
  
  S  C  24   0.00744    -0.00979    -0.02269     0.02973    -0.02089    -0.03400
 PX  C  24   0.00605     0.00754    -0.00333    -0.00491    -0.00664     0.00246
 PY  C  24   0.01617     0.00397    -0.01662     0.00442    -0.01274    -0.00330
 PZ  C  24  -0.23247     0.06303     0.34807    -0.25409     0.23948     0.21591
  
  S  H  25  -0.00183     0.00123    -0.00004     0.00079    -0.00598    -0.00570
  
  S  H  26  -0.00050    -0.00060     0.00258    -0.00226     0.00575     0.00587
  
  S  H  27   0.00154     0.00304    -0.00608     0.00354    -0.01359    -0.00935
  
  S  H  28  -0.00422     0.00501     0.01362    -0.01839     0.01360     0.02226
  
  S  C  29  -0.00701     0.00813    -0.01054     0.01924    -0.02348    -0.03247
 PX  C  29   0.00326    -0.00379     0.00801    -0.01136     0.00946     0.01235
 PY  C  29  -0.00287    -0.00517    -0.00368     0.01440    -0.00424    -0.01567
 PZ  C  29  -0.12239     0.32633    -0.10206     0.09773    -0.34495    -0.23009
  
  S  C  30   0.00409     0.02361     0.01634    -0.03737     0.01033     0.03732
 PX  C  30   0.00204    -0.00434     0.00042    -0.00835     0.00540     0.01584
 PY  C  30  -0.00820    -0.00010     0.00445     0.00204     0.00109    -0.00423
 PZ  C  30  -0.14935    -0.35199    -0.03207     0.34118     0.13822    -0.22327




    ROOT NO.   49          50          51          52          53          54

             2.40609     2.50718     2.85017     3.17911     3.30837     3.47662
  
  
  S  C   1  -0.05270     0.14923     0.20452    -0.11858     0.24842    -0.04696
 PX  C   1  -0.02068     0.02788     0.02214     0.00220    -0.01442    -0.09219
 PY  C   1  -0.04189     0.00935     0.03414     0.01484     0.03046     0.06947
 PZ  C   1   0.29980     0.07230    -0.07954    -0.20283    -0.02855     0.00939
  
  S  C   2   0.07377    -0.20570    -0.23240     0.10712    -0.16992     0.19456
 PX  C   2   0.01705    -0.02151     0.00025    -0.02618     0.06439     0.04939
 PY  C   2   0.01052    -0.05359    -0.03194     0.01295     0.01346     0.03006
 PZ  C   2  -0.23485    -0.05674     0.07932     0.23130     0.03271     0.00932
  
  S  C   3  -0.09139     0.27835     0.24201    -0.08036     0.04295    -0.19125
 PX  C   3   0.00655    -0.00242    -0.06061     0.03104    -0.08050    -0.09165
 PY  C   3  -0.01423     0.02042     0.00174     0.02206    -0.05293     0.12302
 PZ  C   3   0.09611     0.01832    -0.08916    -0.30352    -0.05554    -0.03823
  
  S  C   4   0.10174    -0.24673    -0.21466     0.04747    -0.00182    -0.17960
 PX  C   4   0.00350    -0.03213     0.01867    -0.00619     0.07017     0.08007
 PY  C   4  -0.00374     0.02604     0.06388    -0.03720     0.06827    -0.13098
 PZ  C   4  -0.09091    -0.02438     0.08452     0.31466     0.04810     0.01585
  
  S  C   5  -0.08436     0.16900     0.19796    -0.05758     0.12105     0.26129
 PX  C   5  -0.00891     0.05458     0.02210    -0.00533    -0.04937     0.01780
 PY  C   5  -0.01122    -0.01175    -0.01503     0.03064    -0.03964     0.00094
 PZ  C   5   0.24528     0.08003    -0.06364    -0.25244    -0.01314     0.00079
  
  S  C   6   0.09161    -0.12159    -0.19084     0.06343    -0.21191    -0.18322
 PX  C   6   0.00141    -0.03895    -0.03544     0.02696    -0.02664    -0.00728
 PY  C   6   0.01942     0.00305     0.01286    -0.03298     0.05633    -0.08450
 PZ  C   6  -0.29748    -0.10581     0.04450     0.22715    -0.01034    -0.03187
  
  S  C   7   0.06795    -0.25236    -0.09478     0.01688     0.14930     0.27116
 PX  C   7  -0.01539     0.02680     0.08879    -0.04322     0.08488    -0.00489
 PY  C   7   0.01020    -0.03502     0.03266    -0.01521     0.06803     0.01938
 PZ  C   7   0.11307     0.05425     0.04365     0.14636     0.05447     0.04728
  
  S  C   8  -0.08382     0.23343     0.06875     0.00305    -0.20583     0.23932
 PX  C   8  -0.00641     0.02434    -0.07208     0.02312    -0.10278     0.00834
 PY  C   8   0.02328    -0.02770    -0.05209     0.02233    -0.03556    -0.00507
 PZ  C   8  -0.12896    -0.06116    -0.04598    -0.15776    -0.04143    -0.03074
  
  S  C   9   0.08725    -0.25342     0.06367    -0.04630     0.35183    -0.17050
 PX  C   9   0.00170    -0.00866     0.06918    -0.01720     0.01617     0.07814
 PY  C   9  -0.00601     0.03878     0.03160     0.00091    -0.08749    -0.13772
 PZ  C   9   0.32081     0.14661     0.00700     0.01333     0.02680     0.05170
  
  S  C  10  -0.06978     0.27044    -0.05024     0.04248    -0.32265    -0.21240
 PX  C  10   0.01005    -0.01961    -0.06599     0.01740     0.06488    -0.05693
 PY  C  10  -0.00337     0.01433    -0.05129     0.02343    -0.07536     0.13013
 PZ  C  10  -0.29801    -0.13374     0.00108    -0.00409    -0.04796    -0.05853
  
  S  C  11   0.06400    -0.22485     0.16490    -0.06034     0.09477     0.22655
 PX  C  11  -0.00757     0.03817     0.05428    -0.00391    -0.13369    -0.03361
 PY  C  11   0.01054    -0.02455     0.05678    -0.01308    -0.05696     0.00061
 PZ  C  11   0.12731     0.06482    -0.05123    -0.14973     0.01246     0.03921
  
  S  H  12  -0.03624     0.12551    -0.10665     0.03751    -0.07148    -0.10041
  
  S  C  13  -0.09499     0.18882    -0.16937     0.04584    -0.11571     0.23773
 PX  C  13  -0.01537     0.00704    -0.08630    -0.00168     0.11258     0.02250
 PY  C  13   0.01235    -0.04491    -0.00654    -0.00639     0.08207    -0.01971
 PZ  C  13  -0.15954    -0.08522     0.03233     0.12556     0.02093    -0.04442
  
  S  H  14  -0.03820     0.14165     0.05974    -0.00549    -0.10974    -0.13518
  
  S  H  15   0.02400    -0.09942    -0.12865     0.08602    -0.16197     0.04318
  
  S  H  16  -0.05212     0.11755     0.14923    -0.06175     0.11602    -0.10149
  
  S  H  17   0.04858    -0.10028    -0.13163     0.04062    -0.09705    -0.14938
  
  S  H  18  -0.06269     0.07142     0.11444    -0.03038     0.12360     0.12338
  
  S  H  19   0.04308    -0.13988    -0.04633    -0.00253     0.14239    -0.11186
  
  S  H  20   0.04966    -0.10251     0.09667    -0.03238     0.07043    -0.10195
  
  S  C  21   0.06211    -0.13715     0.23128    -0.05306    -0.21796     0.18960
 PX  C  21  -0.01025     0.04991    -0.04203     0.02370    -0.00809    -0.01935
 PY  C  21   0.00407    -0.00067     0.01381     0.00353    -0.02976     0.00105
 PZ  C  21  -0.23296    -0.07615    -0.07924    -0.25862    -0.03459     0.01036
  
  S  C  22  -0.04988     0.08836    -0.18356     0.02112     0.22310    -0.12871
 PX  C  22   0.00504    -0.02633     0.03865    -0.01032    -0.03284    -0.00140
 PY  C  22  -0.00289    -0.01869     0.00712    -0.01838     0.00528     0.07500
 PZ  C  22   0.30896     0.11851     0.06276     0.24077     0.03931     0.00024
  
  S  C  23   0.06617    -0.07412     0.18502     0.00983    -0.19506    -0.06589
 PX  C  23   0.00089     0.02467    -0.02400     0.00607    -0.01238     0.07921
 PY  C  23   0.00348     0.01969    -0.02711     0.01520     0.03904    -0.04652
 PZ  C  23  -0.29409    -0.13590    -0.03171    -0.23791    -0.05935    -0.00951
  
  S  C  24  -0.08453     0.11610    -0.23556    -0.00908     0.15218     0.19270
 PX  C  24   0.00505    -0.02560     0.01736    -0.00911     0.03311    -0.04451
 PY  C  24   0.01101    -0.05016     0.05980    -0.02287    -0.01689    -0.04600
 PZ  C  24   0.19983     0.10857     0.01958     0.24745     0.06221     0.01638
  
  S  H  25  -0.03810     0.07545    -0.14496     0.03004     0.14859    -0.09492
  
  S  H  26   0.02814    -0.05469     0.10769    -0.01384    -0.13034     0.09001
  
  S  H  27  -0.04349     0.04683    -0.11658    -0.00714     0.12128     0.05216
  
  S  H  28   0.04841    -0.06274     0.14035     0.00944    -0.10299    -0.09639
  
  S  C  29  -0.08087     0.20933    -0.28367     0.07716     0.14919    -0.13331
 PX  C  29   0.00787    -0.03176    -0.00024    -0.00533     0.06918    -0.06149
 PY  C  29  -0.01575     0.00218    -0.06408    -0.00336     0.06862     0.13630
 PZ  C  29   0.07216    -0.00456     0.11111     0.30340     0.01649    -0.01419
  
  S  C  30   0.10376    -0.19199     0.30091    -0.03122    -0.11694    -0.20827
 PX  C  30  -0.00263     0.00578     0.04550     0.00080    -0.09667     0.07448
 PY  C  30  -0.00126     0.03459    -0.02307     0.02729     0.00060    -0.09662
 PZ  C  30  -0.03050    -0.03128    -0.03456    -0.29343    -0.05552    -0.00473




    ROOT NO.   55          56          57          58          59          60

             3.60797     3.66707     3.73089     3.92424     4.16271     4.27483
  
  
  S  C   1   0.26919     0.23897     0.06994    -0.15443     0.04746     0.04416
 PX  C   1  -0.07203    -0.05800    -0.07121    -0.10413     0.08488     0.02596
 PY  C   1   0.02824     0.03530     0.03799     0.07175    -0.01974    -0.02436
 PZ  C   1   0.06641    -0.08926     0.00199     0.02008     0.00700    -0.00704
  
  S  C   2  -0.02001    -0.00896     0.11465     0.29079    -0.21479    -0.07131
 PX  C   2   0.14118     0.12243     0.07549    -0.00391    -0.00713     0.00653
 PY  C   2   0.05292     0.05788     0.02751    -0.04545     0.07314     0.02208
 PZ  C   2  -0.09518     0.11679     0.00119    -0.00825    -0.00817     0.00456
  
  S  C   3  -0.20638    -0.21268    -0.17980    -0.07225    -0.05921     0.02130
 PX  C   3   0.00973     0.04200     0.03458     0.01134    -0.18423     0.00933
 PY  C   3  -0.08177    -0.09201     0.01042     0.16654    -0.04490    -0.04708
 PZ  C   3   0.17562    -0.20518     0.00010     0.01100    -0.00852    -0.00886
  
  S  C   4   0.21277     0.26575     0.08319    -0.18017    -0.05150     0.04496
 PX  C   4   0.05945     0.04977     0.04749     0.13382    -0.11489    -0.03606
 PY  C   4  -0.04335    -0.04465    -0.08094    -0.03276    -0.12303     0.01912
 PZ  C   4  -0.18404     0.21020    -0.00586    -0.02513    -0.00341     0.01517
  
  S  C   5   0.03211    -0.02601     0.07541     0.33064    -0.19819    -0.08581
 PX  C   5  -0.12216    -0.13796    -0.06645     0.00771     0.03796     0.01423
 PY  C   5  -0.06619    -0.04831    -0.01974     0.03883    -0.03451    -0.01460
 PZ  C   5   0.11712    -0.10555     0.00954     0.02412    -0.01117    -0.00947
  
  S  C   6  -0.23906    -0.20669    -0.14631    -0.12238     0.04879     0.03677
 PX  C   6  -0.01798    -0.00183    -0.00293    -0.01002     0.03081    -0.00115
 PY  C   6   0.08743     0.08751     0.00224    -0.14662     0.07801     0.04154
 PZ  C   6  -0.11065     0.05712    -0.02435    -0.03677     0.00882     0.01146
  
  S  C   7   0.07554     0.03187    -0.00785     0.03293     0.38690    -0.04223
 PX  C   7  -0.07385    -0.10350    -0.09717    -0.02990     0.04502     0.01575
 PY  C   7  -0.04201    -0.04373    -0.05804    -0.01076    -0.06830     0.02884
 PZ  C   7  -0.17600     0.17914    -0.01055    -0.00205     0.02207     0.00740
  
  S  C   8  -0.07770    -0.11822     0.08605     0.02424     0.35792    -0.04120
 PX  C   8   0.07715     0.07980     0.07113    -0.08589    -0.03139     0.05018
 PY  C   8   0.04527     0.07248     0.04407    -0.05004     0.06488     0.00676
 PZ  C   8   0.18337    -0.18740     0.01017     0.00733     0.01292    -0.01869
  
  S  C   9  -0.09389    -0.06795    -0.20736     0.10135    -0.08662    -0.11325
 PX  C   9  -0.05517    -0.06946     0.01021     0.04631     0.16507    -0.05305
 PY  C   9   0.01045     0.04492     0.08361     0.03923    -0.01111    -0.14804
 PZ  C   9  -0.24862     0.24438    -0.00682     0.00215    -0.00192     0.02553
  
  S  C  10   0.09413     0.14822     0.18160    -0.01889    -0.09224    -0.09322
 PX  C  10   0.02418     0.04115    -0.05820     0.09243     0.08703    -0.14518
 PY  C  10   0.04666     0.03405     0.06848    -0.01809     0.15800     0.03217
 PZ  C  10   0.24893    -0.23430     0.01601    -0.00403    -0.00650    -0.02210
  
  S  C  11  -0.10618    -0.14749     0.07428    -0.16043    -0.11159     0.33194
 PX  C  11   0.01458     0.02713     0.11461    -0.08463    -0.05402     0.00844
 PY  C  11  -0.00643     0.00881     0.05785    -0.03852    -0.00572    -0.08681
 PZ  C  11  -0.19421     0.17750    -0.00890     0.00916     0.00418     0.02292
  
  S  H  12   0.07702     0.10689    -0.06446     0.09262     0.10876    -0.30218
  
  S  C  13   0.10050     0.01661    -0.06674    -0.13287    -0.10435     0.36008
 PX  C  13  -0.00435    -0.00579    -0.14794    -0.01085    -0.03176    -0.03883
 PY  C  13  -0.01253    -0.01935    -0.06889    -0.00704    -0.04201     0.04586
 PZ  C  13   0.18015    -0.18367     0.00212    -0.00481     0.00467    -0.04973
  
  S  H  14  -0.06166    -0.03146     0.01965    -0.00805    -0.34246     0.06143
  
  S  H  15  -0.18724    -0.16263    -0.05038     0.09633     0.01321    -0.03106
  
  S  H  16   0.00302    -0.00277    -0.08482    -0.21454     0.22256     0.05476
  
  S  H  17  -0.02866     0.00546    -0.04987    -0.24350     0.19988     0.06802
  
  S  H  18   0.13963     0.12396     0.08907     0.06658     0.01350    -0.02233
  
  S  H  19   0.06203     0.07483    -0.05765     0.00077    -0.31780     0.06230
  
  S  H  20  -0.07411    -0.01799     0.04193     0.06842     0.10309    -0.30434
  
  S  C  21   0.03807     0.05808    -0.13278    -0.24883    -0.11842    -0.27720
 PX  C  21   0.05741     0.04279    -0.17462     0.05254    -0.00550    -0.04217
 PY  C  21   0.03212     0.02615    -0.08638     0.04894     0.01560     0.06802
 PZ  C  21  -0.11899     0.12266    -0.02020     0.01837     0.00504     0.00264
  
  S  C  22  -0.12808    -0.11881     0.38261     0.02327     0.04886     0.02735
 PX  C  22   0.00797     0.01512    -0.01931     0.00931     0.00858    -0.02738
 PY  C  22  -0.03593    -0.02590     0.06301    -0.15009    -0.06480    -0.13687
 PZ  C  22   0.09028    -0.09415     0.01184    -0.02163    -0.00680    -0.01036
  
  S  C  23   0.14131     0.12575    -0.31908     0.23376     0.08398     0.14282
 PX  C  23   0.02506     0.01803    -0.11867    -0.07175    -0.04235    -0.09562
 PY  C  23  -0.01355    -0.01875     0.06361     0.04630     0.03271     0.02649
 PZ  C  23  -0.08012     0.10108    -0.02476     0.03782     0.01287     0.01939
  
  S  C  24  -0.05323    -0.04178    -0.06214    -0.27117    -0.12644    -0.28642
 PX  C  24  -0.05478    -0.04203     0.17974    -0.03205    -0.00429    -0.02226
 PY  C  24  -0.02905    -0.00212     0.08713    -0.01486    -0.01025    -0.06803
 PZ  C  24   0.10891    -0.12125     0.00038    -0.04974    -0.01955    -0.04458
  
  S  H  25  -0.03213    -0.05056     0.09710     0.15920     0.07823     0.26614
  
  S  H  26   0.07412     0.06513    -0.22374    -0.02053    -0.03605     0.03072
  
  S  H  27  -0.09090    -0.08471     0.21188    -0.15517    -0.05932    -0.04897
  
  S  H  28   0.03763     0.01951     0.04894     0.16711     0.08033     0.25550
  
  S  C  29   0.07969     0.04848    -0.25858     0.23370     0.08364     0.00297
 PX  C  29  -0.04745    -0.04229     0.12845     0.08263     0.04664     0.14465
 PY  C  29  -0.00714    -0.03285    -0.09423    -0.07921    -0.06221     0.11614
 PZ  C  29   0.20130    -0.20172     0.02957    -0.04129    -0.01582    -0.01284
  
  S  C  30  -0.05723    -0.01489     0.32753     0.08576     0.07292    -0.05001
 PX  C  30   0.02606    -0.00056     0.03501    -0.03747    -0.02453     0.18110
 PY  C  30   0.04289     0.03032    -0.06787     0.16925     0.07695     0.09040
 PZ  C  30  -0.20160     0.19342     0.03046     0.04030     0.01839     0.02511




    ROOT NO.   61          62          63          64          65          66

             5.17023     5.41981     5.55903     5.62784     6.08195     6.40594
  
  
  S  C   1  -0.15405    -0.26099     0.01136    -0.04978     0.04786    -0.01008
 PX  C   1   0.14016     0.08373    -0.04070     0.12663    -0.09723     0.02501
 PY  C   1   0.04687     0.29972     0.02263    -0.04617    -0.00720     0.00352
 PZ  C   1   0.02518     0.06545     0.00017     0.00386    -0.01003     0.00333
  
  S  C   2  -0.17856    -0.08373     0.05076    -0.14931     0.10672    -0.03183
 PX  C   2  -0.12839    -0.17829     0.01557    -0.05454     0.04863    -0.01406
 PY  C   2   0.08204     0.10667    -0.03723     0.12547    -0.18023     0.09040
 PZ  C   2  -0.01555    -0.03275     0.00099    -0.00499     0.00824    -0.00383
  
  S  C   3   0.03187    -0.01650     0.01797    -0.08248     0.15741    -0.08213
 PX  C   3  -0.14301     0.04908     0.02160    -0.04897    -0.10697     0.07794
 PY  C   3  -0.06480    -0.07412     0.03605    -0.11479     0.17187    -0.08687
 PZ  C   3   0.00032     0.00941     0.00127    -0.00318     0.00133     0.00040
  
  S  C   4  -0.02640     0.05681    -0.02481     0.09397    -0.19546     0.09496
 PX  C   4   0.12346    -0.01056    -0.04018     0.12369    -0.07014     0.01978
 PY  C   4   0.10965     0.02344    -0.00368    -0.02523     0.15746    -0.09852
 PZ  C   4   0.00247     0.00136    -0.00087     0.00081     0.00040    -0.00100
  
  S  C   5   0.16810    -0.06086    -0.06115     0.18705    -0.10994     0.02529
 PX  C   5  -0.00476    -0.07263     0.01645    -0.07840     0.15731    -0.07319
 PY  C   5   0.07485    -0.19567    -0.06233     0.19058    -0.16174     0.06382
 PZ  C   5   0.00676    -0.00673    -0.00419     0.01428    -0.01520     0.00670
  
  S  C   6   0.04334    -0.31589    -0.05432     0.13926    -0.05143     0.01086
 PX  C   6  -0.02056     0.27694     0.04929    -0.13343     0.06839    -0.01665
 PY  C   6  -0.13443    -0.07604     0.03671    -0.11874     0.08763    -0.02021
 PZ  C   6  -0.00625    -0.06468    -0.00641     0.01450    -0.00191    -0.00015
  
  S  C   7   0.20355    -0.07757    -0.02756     0.05921     0.12085    -0.09146
 PX  C   7   0.04550    -0.06900     0.00181    -0.04189     0.12539    -0.07980
 PY  C   7  -0.08983     0.02406     0.02240    -0.09272    -0.14040     0.22857
 PZ  C   7   0.00862    -0.00832    -0.00089     0.00060     0.00900    -0.00832
  
  S  C   8  -0.23897    -0.02664     0.03112    -0.05047    -0.12424     0.09085
 PX  C   8   0.05792     0.00999    -0.04462     0.08493     0.05276    -0.12014
 PY  C   8  -0.10706    -0.02563     0.00258     0.02526    -0.21344     0.17391
 PZ  C   8  -0.01340    -0.00134     0.00122     0.00243    -0.01509     0.01013
  
  S  C   9  -0.03013     0.00084     0.06326    -0.11342    -0.04525     0.14409
 PX  C   9  -0.17087     0.00013     0.02184    -0.03650    -0.10687     0.08727
 PY  C   9  -0.06922     0.05077    -0.00672     0.13253     0.00861    -0.19946
 PZ  C   9   0.00737    -0.00056    -0.00107    -0.00108     0.00377    -0.00210
  
  S  C  10   0.03456     0.04589    -0.02112     0.14150     0.05511    -0.18560
 PX  C  10   0.13219    -0.03999     0.03567    -0.07030     0.05324     0.10597
[...]
  S   H   18    0.0924   -0.0232    0.0552    0.0327   -0.0040    0.3035    0.0012    0.1130
  S   H   19    0.2224   -0.1986   -0.2540   -0.0312    0.1657    0.0470   -0.0096    0.1403
  S   H   20   -0.0925   -0.2509   -0.2305    0.2570    0.0689   -0.0075    0.0514   -0.1119
  S   C   21   -0.1198   -0.0640    0.0039    0.0026   -0.0158    0.0007    0.0738    0.0637
  Px  C   21   -0.1370   -0.1407    0.1286   -0.2382    0.2070    0.0006   -0.0845   -0.0742
  Py  C   21    0.1503    0.1163   -0.0371    0.0792   -0.0577    0.0022    0.2731    0.1931
  Pz  C   21   -0.0077   -0.0065    0.0029   -0.0051    0.0041   -0.0000   -0.0005    0.0000
  S   C   22   -0.0611   -0.0213   -0.0329    0.0489   -0.0368   -0.0007   -0.0988   -0.0358
  Px  C   22   -0.0604   -0.0260   -0.0378    0.0633   -0.0402    0.0049    0.4875    0.1183
  Py  C   22   -0.0992   -0.0547    0.0207   -0.0335    0.0327    0.0007   -0.0357    0.0829
  Pz  C   22   -0.0011   -0.0001   -0.0007    0.0012   -0.0005    0.0002    0.0172    0.0032
  S   C   23    0.0654    0.0355   -0.0275    0.0428   -0.0332    0.0008    0.1042   -0.0410
  Px  C   23    0.1245    0.0679    0.0165   -0.0230    0.0321   -0.0029   -0.2240    0.1236
  Py  C   23    0.0179    0.0194   -0.0395    0.0646   -0.0435   -0.0037   -0.4459    0.0585
  Pz  C   23    0.0070    0.0044   -0.0016    0.0029   -0.0017   -0.0002   -0.0219    0.0076
  S   C   24    0.1419    0.0767    0.0265   -0.0309    0.0131   -0.0007   -0.0687    0.0541
  Px  C   24   -0.0611   -0.0372    0.0277   -0.0490    0.0550   -0.0023   -0.2049    0.1300
  Py  C   24    0.1596    0.1362    0.1498   -0.2522    0.2053    0.0005    0.2361   -0.1615
  Pz  C   24    0.0145    0.0085    0.0082   -0.0137    0.0120   -0.0001    0.0099   -0.0057
  S   H   25    0.2141    0.1600   -0.0809    0.1501   -0.1151    0.0009    0.1595    0.1148
  S   H   26    0.0873    0.0384    0.0352   -0.0540    0.0309   -0.0032   -0.3043   -0.0735
  S   H   27   -0.1017   -0.0634    0.0229   -0.0366    0.0158    0.0030    0.3083   -0.0655
  S   H   28   -0.2080   -0.1425   -0.1080    0.1748   -0.1311   -0.0008   -0.1845    0.1206
  S   C   29   -0.1602   -0.1619    0.0970   -0.1907    0.2000   -0.0010    0.0155    0.0126
  Px  C   29    0.0865    0.0522    0.0247   -0.0666    0.1048    0.0021   -0.1070   -0.1177
  Py  C   29   -0.1210   -0.1652   -0.0576    0.0913   -0.1329   -0.0031   -0.0404   -0.0676
  Pz  C   29    0.0152    0.0150   -0.0048    0.0099   -0.0129    0.0002   -0.0037   -0.0039
  S   C   30    0.1279    0.1259    0.1139   -0.1967    0.2005    0.0006   -0.0047    0.0088
  Px  C   30    0.0550    0.1144   -0.0213    0.0511   -0.0735    0.0020    0.0863   -0.1217
  Py  C   30   -0.1582   -0.1428    0.0203   -0.0727    0.1334   -0.0028    0.0753   -0.0528
  Pz  C   30    0.0120    0.0142    0.0093   -0.0163    0.0192    0.0001   -0.0034    0.0026


   Root No.      73        74        75        76        77        78        79        80

                25 b      26 a      27 a      26 b      27 b      28 a      29 a      28 b   

                 9.371     9.508    10.121    10.669    11.095    11.698    11.767    12.202
  
  S   C    1   -0.0422   -0.0503    0.0414   -0.0653    0.0379    0.0149    0.0065    0.0100
  Px  C    1   -0.0337   -0.1884   -0.1018   -0.2360   -0.1716   -0.1805    0.0660    0.1790
  Py  C    1   -0.1529   -0.0396    0.2147   -0.0250    0.2243    0.1621   -0.0288   -0.1007
  Pz  C    1   -0.0107   -0.0131    0.0069   -0.0139    0.0037   -0.0004    0.0028    0.0050
  S   C    2   -0.0219    0.0755    0.0827    0.0457    0.0871    0.0570    0.0150    0.0058
  Px  C    2   -0.0574   -0.1830   -0.0316   -0.2518   -0.0817   -0.1242    0.0883    0.2024
  Py  C    2   -0.1152    0.1561    0.2092   -0.0334    0.1616    0.0608    0.1023    0.1423
  Pz  C    2    0.0015   -0.0102   -0.0076   -0.0083   -0.0084   -0.0069    0.0007    0.0039
  S   C    3    0.0241    0.0339    0.0067    0.0666    0.0320    0.0286    0.0042   -0.0009
  Px  C    3   -0.1753    0.1370    0.2380   -0.0639   -0.0055   -0.1319   -0.1674   -0.1496
  Py  C    3   -0.0773    0.0242    0.1412   -0.0795    0.2104    0.1205    0.2762    0.3595
  Pz  C    3   -0.0016    0.0021    0.0044   -0.0000    0.0040    0.0016    0.0006    0.0014
  S   C    4   -0.0000    0.0381   -0.0061    0.0530   -0.0359   -0.0238    0.0029    0.0103
  Px  C    4    0.1734    0.0791   -0.2493   -0.1297   -0.1641   -0.0396   -0.1474   -0.2197
  Py  C    4    0.1404    0.0765   -0.1268    0.0143    0.1190    0.1788    0.2971    0.3341
  Pz  C    4    0.0030    0.0034   -0.0037    0.0027    0.0013    0.0032    0.0096    0.0115
  S   C    5    0.0381    0.0721   -0.0740    0.0243   -0.0990   -0.0657   -0.0163   -0.0036
  Px  C    5    0.1174    0.0194   -0.1646   -0.1673   -0.0669    0.0169   -0.1340   -0.2272
  Py  C    5   -0.0660   -0.2408    0.1001   -0.1573    0.1914    0.1549   -0.0173   -0.0992
  Pz  C    5   -0.0084   -0.0233    0.0137   -0.0116    0.0211    0.0154    0.0009   -0.0050
  S   C    6    0.0251   -0.0649   -0.0502   -0.0773   -0.0219   -0.0073   -0.0074   -0.0144
  Px  C    6    0.1167   -0.1911   -0.1614   -0.1854   -0.0628   -0.0220   -0.0123   -0.0194
  Py  C    6   -0.0839   -0.0970    0.1777   -0.0995    0.2905    0.2486   -0.0719   -0.2093
  Pz  C    6   -0.0034   -0.0034    0.0059   -0.0051    0.0103    0.0094   -0.0040   -0.0101
  S   C    7    0.1036   -0.0318   -0.0666    0.0893    0.0458    0.0753    0.0049    0.0215
  Px  C    7   -0.0941    0.1279    0.1624    0.0146    0.0292   -0.0561   -0.1677   -0.1429
  Py  C    7    0.2852   -0.0341   -0.0763    0.2496    0.1231    0.1416   -0.0940   -0.0040
  Pz  C    7   -0.0046    0.0043    0.0056   -0.0002   -0.0002   -0.0026   -0.0045   -0.0042
  S   C    8   -0.1051   -0.0099    0.0685    0.0731   -0.0666   -0.0817   -0.0139   -0.0295
  Px  C    8   -0.1582    0.0802   -0.0133    0.1831   -0.1683   -0.1054    0.1592    0.0815
  Py  C    8    0.2513    0.0818   -0.1837   -0.0981    0.0601    0.1248    0.1140    0.1394
  Pz  C    8    0.0139    0.0043   -0.0096   -0.0048    0.0033    0.0069    0.0061    0.0072
  S   C    9   -0.0084   -0.0338    0.0369    0.0037   -0.0056   -0.0251   -0.0173   -0.0033
  Px  C    9   -0.2414    0.0749    0.0307    0.2197   -0.2370   -0.1729    0.1407    0.0544
  Py  C    9   -0.1398   -0.0030   -0.1263    0.1320   -0.0774    0.2824   -0.3024    0.0656
  Pz  C    9   -0.0057    0.0004   -0.0024    0.0046   -0.0030    0.0046   -0.0079    0.0021
  S   C   10   -0.0053   -0.0313   -0.0311    0.0001    0.0056    0.0190    0.0154    0.0009
  Px  C   10    0.2704   -0.0287    0.1019    0.2642    0.1270   -0.1829    0.1809   -0.0828
  Py  C   10    0.1631    0.0271   -0.0931    0.1579    0.1279    0.2895   -0.2818   -0.0091
  Pz  C   10    0.0066   -0.0002   -0.0021    0.0060    0.0047    0.0044   -0.0039   -0.0002
  S   C   11   -0.1069   -0.0293   -0.0889   -0.0777   -0.0174    0.0870    0.0051   -0.0057
  Px  C   11    0.1778   -0.0490    0.0329    0.2186    0.0953   -0.1051    0.1956   -0.0959
  Py  C   11   -0.2526   -0.1373   -0.2112   -0.0838    0.0136    0.1459    0.1168   -0.0927
  Pz  C   11   -0.0014   -0.0034   -0.0046    0.0032    0.0027    0.0010    0.0075   -0.0041
  S   H   12   -0.1737   -0.0551   -0.1148   -0.0873   -0.0216    0.1073    0.0077   -0.0231
  S   C   13    0.0859   -0.0538    0.0820   -0.0824    0.0435   -0.0760   -0.0018   -0.0018
  Px  C   13    0.0734   -0.1755    0.1683   -0.0042   -0.0541   -0.0814   -0.2048    0.1144
  Py  C   13   -0.2469    0.1008   -0.1338    0.2259   -0.1317    0.1467   -0.1110    0.0358
  Pz  C   13   -0.0058    0.0046   -0.0076    0.0051   -0.0016    0.0057    0.0029   -0.0012
  S   H   14    0.1663   -0.0510   -0.0809    0.1067    0.0554    0.0897    0.0022    0.0427
  S   H   15   -0.0894   -0.0795    0.0746   -0.0861    0.0564    0.0235    0.0082    0.0076
  S   H   16   -0.0479    0.1218    0.1144    0.0421    0.1039    0.0643    0.0314    0.0228
  S   H   17    0.0639    0.1261   -0.0923    0.0352   -0.1150   -0.0759   -0.0272   -0.0108
  S   H   18    0.0760   -0.1131   -0.1017   -0.1089   -0.0435   -0.0186   -0.0086   -0.0098
  S   H   19   -0.1684   -0.0147    0.0835    0.0894   -0.0775   -0.0947   -0.0069   -0.0460
  S   H   20    0.1479   -0.0980    0.1155   -0.1043    0.0519   -0.1073   -0.0006    0.0163
  S   C   21    0.0330    0.1008    0.0619   -0.0426   -0.0941    0.0731    0.0054    0.0132
  Px  C   21   -0.1046   -0.0491   -0.1484   -0.1326    0.1587   -0.0622   -0.1480    0.1758
  Py  C   21    0.0558    0.3285    0.0763   -0.1902   -0.1314    0.1370   -0.0532    0.1203
  Pz  C   21    0.0001    0.0007   -0.0000   -0.0026    0.0003    0.0001   -0.0019    0.0027
  S   C   22    0.0220   -0.0765    0.0473    0.0606   -0.0558    0.0272    0.0021    0.0025
  Px  C   22   -0.0938    0.2421   -0.1439   -0.1485    0.1357   -0.0608   -0.0028   -0.0107
  Py  C   22    0.0610    0.1534    0.1340   -0.1607   -0.2331    0.2245   -0.1270    0.2361
  Pz  C   22   -0.0035    0.0070   -0.0051   -0.0044    0.0051   -0.0027   -0.0005   -0.0002
  S   C   23   -0.0411   -0.0743   -0.0464    0.0764    0.0341   -0.0252   -0.0013    0.0035
  Px  C   23    0.0623    0.2376   -0.0343   -0.1937    0.1805   -0.1579    0.1035   -0.2057
  Py  C   23    0.1426    0.0803    0.1985   -0.0871   -0.2248    0.1707   -0.0674    0.1313
  Pz  C   23    0.0056    0.0133    0.0018   -0.0098    0.0044   -0.0044    0.0030   -0.0066
  S   C   24   -0.0018    0.0951   -0.0546   -0.0256    0.0944   -0.0713   -0.0052   -0.0127
  Px  C   24    0.0718    0.2492    0.0137   -0.2321    0.0946   -0.0834    0.1151   -0.2068
  Py  C   24    0.0685   -0.2382    0.1881   -0.0722   -0.1951    0.1321    0.1035   -0.1055
  Pz  C   24    0.0049   -0.0070    0.0084   -0.0066   -0.0055    0.0028    0.0059   -0.0071
  S   H   25    0.0561    0.1723    0.0773   -0.0529   -0.1107    0.0889    0.0202    0.0053
  S   H   26    0.0581   -0.1517    0.0856    0.0932   -0.0791    0.0352    0.0049    0.0035
  S   H   27   -0.0967   -0.1107   -0.0949    0.1028    0.0632   -0.0420    0.0006   -0.0040
  S   H   28   -0.0190    0.1912   -0.0950   -0.0223    0.1275   -0.0934   -0.0243   -0.0009
  S   C   29   -0.0070    0.0460   -0.0013   -0.0662   -0.0214    0.0274   -0.0109    0.0167
  Px  C   29   -0.1448   -0.1178   -0.2162   -0.0767    0.2465   -0.1217   -0.1502    0.1589
  Py  C   29   -0.1333   -0.0955   -0.1591    0.0153   -0.0833    0.2472    0.3181   -0.2336
  Pz  C   29   -0.0036   -0.0064   -0.0057    0.0021    0.0096   -0.0071   -0.0072    0.0062
  S   C   30    0.0224    0.0348    0.0078   -0.0584    0.0318   -0.0225    0.0071   -0.0144
  Px  C   30    0.1425   -0.2014    0.2550   -0.0811   -0.0264   -0.1531   -0.1968    0.0998
  Py  C   30    0.0429   -0.0479    0.1098   -0.1212   -0.2277    0.2410    0.2937   -0.2706
  Pz  C   30    0.0009    0.0058   -0.0017   -0.0035    0.0063   -0.0053   -0.0037    0.0028


   Root No.      81        82        83        84

                30 a      31 a      29 b      30 b   

                12.588    12.739    13.268    14.658
  
  S   C    1    0.0651    0.0195    0.0028    0.0364
  Px  C    1    0.1524    0.2502    0.1267    0.0883
  Py  C    1    0.0637   -0.1277   -0.0837    0.0290
  Pz  C    1    0.0104    0.0065    0.0021    0.0051
  S   C    2    0.0167   -0.0091   -0.0118    0.0274
  Px  C    2    0.2063    0.2644    0.1213    0.1307
  Py  C    2    0.1538    0.1198    0.0265    0.1200
  Pz  C    2    0.0038    0.0066    0.0037    0.0020
  S   C    3   -0.0122   -0.0001    0.0075    0.0251
  Px  C    3    0.2606    0.1758    0.2176    0.2148
  Py  C    3    0.1232    0.1669   -0.0294    0.1069
  Pz  C    3    0.0039    0.0031    0.0019    0.0040
  S   C    4   -0.0128    0.0008   -0.0109    0.0259
  Px  C    4    0.2594   -0.1547   -0.1243    0.2011
  Py  C    4    0.0952   -0.0162   -0.2252    0.1346
  Pz  C    4    0.0011    0.0008   -0.0059    0.0039
  S   C    5    0.0071    0.0199    0.0136    0.0236
  Px  C    5    0.2689   -0.1763   -0.1302    0.1734
  Py  C    5    0.1332   -0.1460   -0.1160    0.0588
  Pz  C    5    0.0073   -0.0101   -0.0080    0.0019
  S   C    6    0.0684   -0.0104   -0.0186    0.0383
  Px  C    6    0.1408   -0.0086   -0.0306    0.0750
  Py  C    6    0.1555   -0.2563   -0.1765    0.0732
  Pz  C    6    0.0082   -0.0114   -0.0079    0.0043
  S   C    7   -0.0622    0.0055   -0.0003    0.0147
  Px  C    7    0.2165    0.1790    0.2207    0.2379
  Py  C    7   -0.0075    0.1442    0.1123    0.1584
  Pz  C    7    0.0058    0.0046    0.0057    0.0063
  S   C    8   -0.0551   -0.0182    0.0085    0.0148
  Px  C    8    0.0937   -0.1700   -0.2393    0.2684
  Py  C    8    0.1547   -0.0301   -0.1618    0.1265
  Pz  C    8    0.0072   -0.0013   -0.0080    0.0062
  S   C    9   -0.0647    0.0111    0.0021    0.0048
  Px  C    9    0.0282   -0.1728   -0.2334    0.2798
  Py  C    9   -0.0872    0.2488   -0.1525    0.1542
  Pz  C    9   -0.0017    0.0047   -0.0051    0.0053
  S   C   10   -0.0584   -0.0275    0.0080    0.0012
  Px  C   10    0.0337   -0.1159    0.2331    0.2703
  Py  C   10    0.0210    0.3025    0.1027    0.1461
  Pz  C   10    0.0004    0.0045    0.0045    0.0057
  S   C   11   -0.0666    0.0015    0.0146   -0.0075
  Px  C   11   -0.0378   -0.1300    0.2536    0.2696
  Py  C   11   -0.1558   -0.0344    0.1744    0.1396
  Pz  C   11   -0.0038   -0.0041    0.0099    0.0080
  S   H   12   -0.0562    0.0242    0.0179   -0.0012
  S   C   13   -0.0546   -0.0188    0.0101   -0.0184
  Px  C   13   -0.2249    0.0597   -0.2432    0.2514
  Py  C   13   -0.0164    0.1087   -0.1416    0.1673
  Pz  C   13    0.0049    0.0003    0.0025   -0.0008
  S   H   14   -0.0529    0.0256   -0.0087    0.0085
  S   H   15    0.0733    0.0129   -0.0033    0.0357
  S   H   16    0.0207   -0.0082   -0.0193    0.0202
  S   H   17   -0.0022    0.0269    0.0263    0.0098
  S   H   18    0.0761    0.0007   -0.0116    0.0374
  S   H   19   -0.0352   -0.0373    0.0099    0.0131
  S   H   20   -0.0414   -0.0427    0.0014   -0.0119
  S   C   21    0.0184   -0.0132    0.0113   -0.0292
  Px  C   21   -0.2120   -0.2158    0.1762    0.1899
  Py  C   21   -0.0846   -0.1620    0.1490    0.0641
  Pz  C   21   -0.0031   -0.0033    0.0025    0.0028
  S   C   22    0.0614    0.0121   -0.0142   -0.0392
  Px  C   22   -0.1330   -0.0178    0.0218    0.0784
  Py  C   22   -0.0730   -0.2750    0.2387    0.0801
  Pz  C   22   -0.0040   -0.0003    0.0002    0.0022
  S   C   23    0.0659    0.0018    0.0008   -0.0393
  Px  C   23   -0.2147    0.2003   -0.1751    0.0933
  Py  C   23   -0.0228   -0.1414    0.1166    0.0329
  Pz  C   23   -0.0092    0.0065   -0.0060    0.0042
  S   C   24    0.0066    0.0173   -0.0183   -0.0262
  Px  C   24   -0.2641    0.1931   -0.1636    0.1363
  Py  C   24   -0.1704    0.0692   -0.0376    0.1252
  Pz  C   24   -0.0093    0.0053   -0.0038    0.0050
  S   H   25    0.0140   -0.0173    0.0258   -0.0156
  S   H   26    0.0771    0.0109   -0.0111   -0.0416
  S   H   27    0.0713    0.0123   -0.0090   -0.0390
  S   H   28    0.0108    0.0169   -0.0271   -0.0196
  S   C   29   -0.0179   -0.0094   -0.0073   -0.0241
  Px  C   29   -0.2121   -0.1998    0.1767    0.2221
  Py  C   29   -0.1063    0.0066    0.2264    0.1448
  Pz  C   29   -0.0051   -0.0056    0.0040    0.0073
  S   C   30   -0.0148    0.0025    0.0106   -0.0246
  Px  C   30   -0.2629    0.0447   -0.2277    0.2242
  Py  C   30   -0.1672    0.1413    0.0049    0.1117
  Pz  C   30    0.0018   -0.0021    0.0013   -0.0035


              NET ATOMIC CHARGES AND DIPOLE CONTRIBUTIONS

  ATOM NO.   TYPE          CHARGE      No. of ELECS.   s-Pop       p-Pop       
    1          C          -0.033350        4.0334     1.11273     2.92062
    2          C          -0.029419        4.0294     1.10491     2.92451
    3          C           0.013707        3.9863     1.06383     2.92246
    4          C           0.011672        3.9883     1.06384     2.92448
    5          C          -0.026507        4.0265     1.09887     2.92764
    6          C          -0.030662        4.0307     1.10125     2.92941
    7          C          -0.035158        4.0352     1.10024     2.93492
    8          C          -0.034690        4.0347     1.09510     2.93959
    9          C           0.017406        3.9826     1.05320     2.92940
   10          C           0.012047        3.9880     1.06114     2.92681
   11          C          -0.033652        4.0337     1.09348     2.94018
   12          H           0.023445        0.9766     0.97655
   13          C          -0.035615        4.0356     1.09464     2.94098
   14          H           0.023697        0.9763     0.97630
   15          H           0.026223        0.9738     0.97378
   16          H           0.024188        0.9758     0.97581
   17          H           0.026272        0.9737     0.97373
   18          H           0.023934        0.9761     0.97607
   19          H           0.025742        0.9743     0.97426
   20          H           0.021378        0.9786     0.97862
   21          C          -0.026073        4.0261     1.09374     2.93233
   22          C          -0.024698        4.0247     1.08879     2.93591
   23          C          -0.028331        4.0283     1.09214     2.93619
   24          C          -0.030554        4.0306     1.09390     2.93665
   25          H           0.021901        0.9781     0.97810
   26          H           0.023355        0.9766     0.97664
   27          H           0.023458        0.9765     0.97654
   28          H           0.028426        0.9716     0.97157
   29          C           0.016441        3.9836     1.05835     2.92521
   30          C           0.005418        3.9946     1.07453     2.92005
 DIPOLE           X         Y         Z       TOTAL
 POINT-CHG.     0.049     0.072     0.054     0.102
 HYBRID        -0.061     0.049     0.231     0.244
 SUM           -0.012     0.121     0.285     0.309


          ATOMIC ORBITAL ELECTRON POPULATIONS

     Atom    s        px        py        pz   
    1  C   1.11273   0.97647   0.94573   0.99842
    2  C   1.10491   0.97558   0.94176   1.00717
    3  C   1.06383   0.97098   0.96304   0.98844
    4  C   1.06384   0.97335   0.97126   0.97987
    5  C   1.09887   0.98022   0.94970   0.99772
    6  C   1.10125   0.94477   0.98143   1.00321
    7  C   1.10024   0.96776   0.95185   1.01531
    8  C   1.09510   0.96578   0.95653   1.01728
    9  C   1.05320   0.97288   0.97350   0.98301
   10  C   1.06114   0.97573   0.96955   0.98153
   11  C   1.09348   0.97268   0.94861   1.01889
   12  H   0.97655
   13  C   1.09464   0.97017   0.95617   1.01463
   14  H   0.97630
   15  H   0.97378
   16  H   0.97581
   17  H   0.97373
   18  H   0.97607
   19  H   0.97426
   20  H   0.97862
   21  C   1.09374   0.97520   0.95000   1.00714
   22  C   1.08879   0.94863   0.98599   1.00129
   23  C   1.09214   0.98957   0.94935   0.99727
   24  C   1.09390   0.98387   0.94982   1.00297
   25  H   0.97810
   26  H   0.97664
   27  H   0.97654
   28  H   0.97157
   29  C   1.05835   0.97237   0.97083   0.98201
   30  C   1.07453   0.97187   0.96414   0.98404

 **********************
 *                    *
 * JOB ENDED NORMALLY *
 *                    *
 **********************



 TOTAL JOB TIME:             1.41 SECONDS

 == MOPAC DONE ==


          MOPAC Job: "./tetraceneTraj/tetracene_125.mop" ended normally on Feb 15, 2023, at 11:21.

rm: cannot remove ./tetraceneTraj/tetracene_125.cim: No such file or directory
rm: cannot remove ./tetraceneTraj/tetracene_125.end: No such file or directory
rm: cannot remove ./tetraceneTraj/tetracene_125.log: No such file or directory
rm: cannot remove ./tetraceneTraj/tetracene_125.temp: No such file or directory
rm: cannot remove ./tetraceneTraj/tetracene_125.ple: No such file or directory
rm: cannot remove ./tetraceneTraj/tetracene_125.sts: No such file or directory
