 *******************************************************************************
 ** Site#:    0         For non-commercial use only    Version 20.173L 64BITS **
 *******************************************************************************
 ** Cite this program as: MOPAC2016, Version: 20.173L, James J. P. Stewart,   **
 ** Stewart Computational Chemistry, web-site: HTTP://OpenMOPAC.net.          **
 *******************************************************************************
 **                                                                           **
 **                                MOPAC2016                                  **
 **                                                                           **
 *******************************************************************************

                              INDO CALCULATION RESULTS

 *******************************************************************************
 *  CALCULATION DONE:                                Wed Feb 15 11:28:51 2023  *
 *  INDO       - The INDO Hamiltonian to be used
 *
 *
 *
 *                 CHARGE ON SYSTEM = 0
 *
 *
 *
 *  C.I.=(N,M) - 3 DOUBLY FILLED LEVELS USED IN A C.I. INVOLVING 6 M.O.'S
 *  T=         - A TIME OF 172800.0 SECONDS REQUESTED
 *  DUMP=N     - RESTART FILE WRITTEN EVERY 7200.0 SECONDS REQUESTED
 *  RELSCF     - DEFAULT SCF CRITERION MULTIPLIED BY 0.0000
 *              (DEFAULT SCF CRITERION = 0.00010)
 *  ALLVEC     - PRINT ALL EIGENVECTORS
 **********
 *  WARNING: Specified print options may not behave as expected with INDO
 **********
 *******************************************************************************
INDO C.I.=(6,3) AllVEC CHARGE=0 RELSCF=0.000001


   ATOM   CHEMICAL          X               Y               Z
  NUMBER   SYMBOL      (ANGSTROMS)     (ANGSTROMS)     (ANGSTROMS)
 
     1       C         18.44660058  *  19.51353237  *  22.28970948  *
     2       C         19.82753160  *  19.47197253  *  22.36725662  *
     3       C         20.67163614  *  20.63607041  *  22.42092541  *
     4       C         19.96186173  *  21.95324929  *  22.43900994  *
     5       C         18.51444984  *  21.99100442  *  22.41960887  *
     6       C         17.76737987  *  20.81567803  *  22.39736028  *
     7       C         22.10921188  *  20.59555767  *  22.45391710  *
     8       C         20.71544769  *  23.16559519  *  22.46871773  *
     9       C         22.15324569  *  23.08668155  *  22.50682000  *
    10       C         22.92302320  *  21.79519842  *  22.50535171  *
    11       C         24.32893395  *  21.84254298  *  22.57258074  *
    12       H         24.86474200  *  20.90836713  *  22.55144059  *
    13       C         22.90226129  *  24.30147795  *  22.59541954  *
    14       H         22.62014984  *  19.63659514  *  22.41419204  *
    15       H         17.82927017  *  18.63049343  *  22.06387467  *
    16       H         20.42679770  *  18.58473318  *  22.22576008  *
    17       H         17.95882545  *  22.92799445  *  22.49596487  *
    18       H         16.66444610  *  20.85385387  *  22.39070227  *
    19       H         20.20941824  *  24.15369150  *  22.38641257  *
    20       H         22.39102828  *  25.27053662  *  22.62322088  *
    21       C         26.49465461  *  23.05833316  *  22.59620476  *
    22       C         27.17996314  *  24.27037665  *  22.50047731  *
    23       C         26.50915824  *  25.55035604  *  22.54025537  *
    24       C         25.12529991  *  25.55984435  *  22.66174285  *
    25       H         27.04528975  *  22.10641345  *  22.59747430  *
    26       H         28.27590904  *  24.26574330  *  22.44776767  *
    27       H         27.16247018  *  26.51496766  *  22.38798445  *
    28       H         24.55853630  *  26.54442188  *  22.57307012  *
    29       C         25.05012357  *  23.03074846  *  22.66221516  *
    30       C         24.31863899  *  24.32836718  *  22.67315728  *
 


          CARTESIAN COORDINATES 

    NO.       ATOM           X           Y           Z

     1         C         18.4466     19.5135     22.2897
     2         C         19.8275     19.4720     22.3673
     3         C         20.6716     20.6361     22.4209
     4         C         19.9619     21.9532     22.4390
     5         C         18.5144     21.9910     22.4196
     6         C         17.7674     20.8157     22.3974
     7         C         22.1092     20.5956     22.4539
     8         C         20.7154     23.1656     22.4687
     9         C         22.1532     23.0867     22.5068
    10         C         22.9230     21.7952     22.5054
    11         C         24.3289     21.8425     22.5726
    12         H         24.8647     20.9084     22.5514
    13         C         22.9023     24.3015     22.5954
    14         H         22.6201     19.6366     22.4142
    15         H         17.8293     18.6305     22.0639
    16         H         20.4268     18.5847     22.2258
    17         H         17.9588     22.9280     22.4960
    18         H         16.6644     20.8539     22.3907
    19         H         20.2094     24.1537     22.3864
    20         H         22.3910     25.2705     22.6232
    21         C         26.4947     23.0583     22.5962
    22         C         27.1800     24.2704     22.5005
    23         C         26.5092     25.5504     22.5403
    24         C         25.1253     25.5598     22.6617
    25         H         27.0453     22.1064     22.5975
    26         H         28.2759     24.2657     22.4478
    27         H         27.1625     26.5150     22.3880
    28         H         24.5585     26.5444     22.5731
    29         C         25.0501     23.0307     22.6622
    30         C         24.3186     24.3284     22.6732

           Empirical Formula: C18 H12  =    30 atoms



      MOLECULAR POINT GROUP   :   C1  


      RHF CALCULATION, NO. OF DOUBLY OCCUPIED LEVELS = 42

 WARNING: INDO only performs single-point calculations
  SCF CRITERION =    0.1000E-09

 Summary of symmetry occupancy in each shell:

 SHELL     
    1   42
    v   42
 TOTAL  84




    ROOT NO.    1           2           3           4           5           6

           -44.21533   -42.71292   -40.11493   -36.67132   -35.64410   -34.08354
  
  
  S  C   1   0.11506     0.23971    -0.23722    -0.25519    -0.03115     0.13398
 PX  C   1   0.03210     0.05932    -0.04232    -0.01379    -0.04816     0.08947
 PY  C   1   0.04062     0.08142    -0.07326    -0.06282     0.02988    -0.04526
 PZ  C   1   0.00362     0.00719    -0.00625    -0.00463     0.00106    -0.00136
  
  S  C   2   0.14872     0.27043    -0.19918    -0.12087    -0.17256     0.30516
 PX  C   2  -0.00225    -0.02761     0.06444     0.11027    -0.06095     0.04098
 PY  C   2   0.05610     0.09433    -0.05423    -0.00448    -0.01332     0.00830
 PZ  C   2  -0.00073    -0.00236     0.00371     0.00566     0.00274    -0.00768
  
  S  C   3   0.24299     0.31576    -0.04985     0.16922    -0.20333     0.20541
 PX  C   3  -0.00246    -0.06705     0.12861     0.12992    -0.08221     0.03563
 PY  C   3   0.04428     0.02361     0.05800     0.10199     0.08394    -0.14435
 PZ  C   3   0.00053    -0.00199     0.00516     0.00583     0.00155    -0.00543
  
  S  C   4   0.24375     0.31744    -0.04993     0.18910     0.14825    -0.22483
 PX  C   4   0.03671    -0.01579     0.12011     0.15964    -0.05291     0.07803
 PY  C   4  -0.02455    -0.06575     0.07509     0.06875     0.10914    -0.12265
 PZ  C   4  -0.00020    -0.00225     0.00383     0.00361     0.00147    -0.00197
  
  S  C   5   0.14416     0.26232    -0.19377    -0.10636     0.19205    -0.29820
 PX  C   5   0.04318     0.05845    -0.00439     0.06679     0.02440    -0.03340
 PY  C   5  -0.03595    -0.08000     0.08582     0.09538     0.01172    -0.02426
 PZ  C   5   0.00020    -0.00026     0.00136     0.00294     0.00242    -0.00459
  
  S  C   6   0.11470     0.23920    -0.23728    -0.25230     0.09867    -0.12227
 PX  C   6   0.05121     0.09978    -0.08341    -0.05778     0.01403    -0.00946
 PY  C   6   0.00281     0.00182     0.00678     0.02625     0.04826    -0.10273
 PZ  C   6  -0.00132    -0.00312     0.00382     0.00556     0.00098    -0.00366
  
  S  C   7   0.21323     0.14267     0.15462     0.21758    -0.32556     0.16397
 PX  C   7  -0.02294    -0.07190     0.03726    -0.08000    -0.00599    -0.07492
 PY  C   7   0.06969     0.01826     0.08345     0.06274    -0.00600    -0.04843
 PZ  C   7   0.00090    -0.00197     0.00321    -0.00123     0.00082    -0.00444
  
  S  C   8   0.21443     0.14773     0.15413     0.26792     0.27794    -0.19111
 PX  C   8   0.04526    -0.02360     0.09070     0.01823     0.01736     0.08458
 PY  C   8  -0.05990    -0.07236    -0.01569    -0.10026     0.02470     0.05194
 PZ  C   8   0.00001    -0.00231     0.00195    -0.00278    -0.00030     0.00408
  
  S  C   9   0.31829     0.01771     0.30803     0.06077     0.21947     0.01770
 PX  C   9   0.03820    -0.08366     0.02691    -0.19123    -0.05033     0.07010
 PY  C   9  -0.03476    -0.04502    -0.03414    -0.08684     0.15078     0.04364
 PZ  C   9   0.00334    -0.00428     0.00303    -0.01017     0.00453     0.00445
  
  S  C  10   0.31657     0.00386     0.30430    -0.00767    -0.22417    -0.01123
 PX  C  10  -0.00920    -0.08437    -0.02061    -0.19778    -0.04863    -0.05881
 PY  C  10   0.05621    -0.04346     0.04416    -0.08839     0.13188    -0.01474
 PZ  C  10   0.00277    -0.00426     0.00225    -0.01059     0.00100    -0.00254
  
  S  C  11   0.26338    -0.13504     0.15687    -0.26090    -0.27973    -0.19380
 PX  C  11  -0.04358    -0.02372    -0.09866     0.00171     0.00529    -0.07592
 PY  C  11   0.07781    -0.06585     0.01053    -0.09608     0.03056    -0.02534
 PZ  C  11   0.00012    -0.00204    -0.00210    -0.00420     0.00215    -0.00279
  
  S  H  12   0.08379    -0.04280     0.04606    -0.08249    -0.15354    -0.10467
  
  S  C  13   0.25105    -0.11542     0.16286    -0.16611     0.33765     0.21348
 PX  C  13   0.03907    -0.06589    -0.03884    -0.08779    -0.01256     0.07199
 PY  C  13  -0.07945     0.01403    -0.08912     0.04888    -0.00660     0.03633
 PZ  C  13  -0.00144    -0.00147    -0.00325    -0.00336    -0.00082     0.00420
  
  S  H  14   0.06757     0.04409     0.04584     0.05600    -0.16105     0.08508
  
  S  H  15   0.02935     0.06448    -0.07121    -0.09213    -0.01341     0.05755
  
  S  H  16   0.04928     0.08487    -0.05492    -0.02430    -0.10123     0.16150
  
  S  H  17   0.04335     0.07698    -0.05431    -0.02562     0.09405    -0.14850
  
  S  H  18   0.02923     0.06430    -0.07120    -0.09084     0.04083    -0.05573
  
  S  H  19   0.06586     0.04357     0.04515     0.07705     0.14469    -0.08809
  
  S  H  20   0.07709    -0.03373     0.04713    -0.03477     0.16727     0.10342
  
  S  C  21   0.18043    -0.22042    -0.23402     0.08606    -0.17521    -0.26602
 PX  C  21  -0.05803     0.05482     0.01290     0.06423     0.02986     0.03280
 PY  C  21   0.04008    -0.06156    -0.10029     0.09745     0.02233     0.02936
 PZ  C  21  -0.00081     0.00116     0.00225    -0.00358     0.00076     0.00132
  
  S  C  22   0.14209    -0.19897    -0.28655     0.24387    -0.07294    -0.10360
 PX  C  22  -0.06177     0.08057     0.09716    -0.05336     0.00655     0.00218
 PY  C  22  -0.00595     0.00445    -0.00612     0.03131     0.04719     0.09044
 PZ  C  22   0.00508    -0.00704    -0.00954     0.00640    -0.00199    -0.00293
  
  S  C  23   0.13426    -0.18867    -0.27473     0.25041     0.04152     0.10949
 PX  C  23  -0.03501     0.04355     0.04577    -0.01619    -0.04339    -0.07724
 PY  C  23  -0.05209     0.07046     0.09311    -0.06545     0.01997     0.03172
 PZ  C  23   0.00227    -0.00305    -0.00370     0.00157     0.00159     0.00312
  
  S  C  24   0.16689    -0.20513    -0.22571     0.13336     0.16120     0.26232
 PX  C  24   0.00816    -0.02792    -0.07847     0.10050    -0.04873    -0.03847
 PY  C  24  -0.06741     0.07637     0.06434    -0.00569    -0.02040    -0.02062
 PZ  C  24  -0.00549     0.00709     0.00906    -0.00767    -0.00405    -0.00775
  
  S  H  25   0.05513    -0.06526    -0.06429     0.01334    -0.08958    -0.13542
  
  S  H  26   0.03693    -0.05459    -0.08781     0.08948    -0.03165    -0.04899
  
  S  H  27   0.03019    -0.04493    -0.07364     0.08175     0.01478     0.04106
  
  S  H  28   0.04749    -0.05597    -0.05698     0.03392     0.08198     0.12584
  
  S  C  29   0.30691    -0.27328    -0.07290    -0.19431    -0.14738    -0.19131
 PX  C  29  -0.04783    -0.00754    -0.13387     0.14357    -0.05242    -0.08642
 PY  C  29   0.02554    -0.04970    -0.08894     0.07764     0.11361     0.12228
 PZ  C  29  -0.00980     0.00811     0.00095     0.00618     0.00753     0.00898
  
  S  C  30   0.29299    -0.25798    -0.06746    -0.14086     0.20140     0.22312
 PX  C  30   0.00259    -0.05177    -0.14402     0.11287    -0.08997    -0.06269
 PY  C  30  -0.06245     0.02865    -0.06335     0.10841     0.07328     0.11325
 PZ  C  30  -0.00882     0.00692     0.00012     0.00420    -0.00527    -0.00499




    ROOT NO.    7           8           9          10          11          12

           -31.72541   -31.22123   -28.72001   -28.18961   -26.85654   -25.96555
  
  
  S  C   1   0.09563     0.29689    -0.19786     0.26198    -0.04751    -0.19915
 PX  C   1   0.11157    -0.05815    -0.10165    -0.15252     0.02724    -0.06159
 PY  C   1  -0.06829     0.01347     0.08849    -0.00785    -0.05844     0.09542
 PZ  C   1  -0.00235    -0.00254     0.00544    -0.00901    -0.00471     0.00894
  
  S  C   2   0.26485     0.01001    -0.16694    -0.12621     0.11461    -0.02261
 PX  C   2   0.00890    -0.15127     0.13626    -0.12407     0.09172     0.19712
 PY  C   2  -0.00121    -0.07385     0.05436    -0.08684    -0.08708     0.07571
 PZ  C   2  -0.00846    -0.00903     0.01353    -0.00578    -0.00775     0.01275
  
  S  C   3   0.11506    -0.22342     0.10943    -0.11390    -0.07835     0.17457
 PX  C   3  -0.07292     0.02466     0.14415     0.15795     0.07464     0.07115
 PY  C   3  -0.07948    -0.02255    -0.02330     0.09386    -0.20371    -0.09962
 PZ  C   3  -0.00651    -0.00071     0.00536     0.00561    -0.00638     0.00043
  
  S  C   4  -0.01008    -0.26043    -0.12277    -0.10635    -0.11999    -0.18561
 PX  C   4   0.09562     0.03262    -0.05116     0.16778    -0.10977     0.05497
 PY  C   4  -0.00434     0.02351    -0.10766     0.08551     0.15193    -0.11157
 PZ  C   4  -0.00061     0.00082     0.00015     0.00325     0.00021     0.00066
  
  S  C   5  -0.24884    -0.10210     0.17280    -0.15441     0.12380     0.03867
 PX  C   5   0.06453    -0.13391    -0.15019    -0.11455    -0.06059    -0.20817
 PY  C   5   0.03142    -0.06930    -0.06758    -0.02871     0.09271    -0.09327
 PZ  C   5  -0.00229    -0.00557     0.00113    -0.00557     0.00450    -0.00135
  
  S  C   6  -0.21329     0.22456     0.20998     0.21733    -0.00142     0.20008
 PX  C   6   0.00403    -0.02331    -0.03378    -0.08802    -0.04510    -0.06707
 PY  C   6  -0.10139    -0.10722     0.14220    -0.14749     0.08339     0.12675
 PZ  C   6  -0.00207    -0.01077     0.00520    -0.01390     0.00422     0.00559
  
  S  C   7  -0.17675    -0.01822     0.25644     0.13318     0.16568    -0.00326
 PX  C   7  -0.13843     0.11728    -0.05342     0.01974     0.09147    -0.20304
 PY  C   7  -0.07766     0.07005    -0.02529     0.08670    -0.16841    -0.08917
 PZ  C   7  -0.00597     0.00463    -0.00266     0.00167    -0.00477    -0.00727
  
  S  C   8   0.16768     0.03002    -0.23189     0.13910     0.17070    -0.01972
 PX  C   8   0.08099     0.17258     0.04941     0.08055    -0.03718     0.20216
 PY  C   8   0.04408     0.08701     0.03207    -0.03932     0.18700     0.09101
 PZ  C   8   0.00113     0.00560     0.00522    -0.00078    -0.00288     0.00737
  
  S  C   9   0.14726     0.28382    -0.00701     0.00802    -0.07206     0.19416
 PX  C   9  -0.08036     0.00860     0.09934    -0.18617    -0.12349    -0.04389
 PY  C   9   0.13983     0.01260     0.04158    -0.09416     0.22560     0.08711
 PZ  C   9   0.00236     0.00209     0.00636    -0.01145    -0.00061     0.00195
  
  S  C  10  -0.27507     0.19809    -0.00434    -0.00552    -0.09157    -0.16869
 PX  C  10  -0.04933    -0.03092    -0.12915    -0.17456     0.12439    -0.06632
 PY  C  10   0.11389     0.04496    -0.06193    -0.10585    -0.20511     0.13284
 PZ  C  10  -0.00014    -0.00004    -0.00666    -0.01076    -0.00254     0.00074
  
  S  C  11  -0.12905    -0.02574    -0.24787    -0.11041     0.17885    -0.01101
 PX  C  11   0.15740    -0.12421    -0.03676     0.09754     0.09212     0.17236
 PY  C  11   0.08814    -0.06512    -0.01799    -0.03299    -0.17657     0.13857
 PZ  C  11   0.00830    -0.00798    -0.00311     0.00106    -0.00408     0.01258
  
  S  H  12  -0.06085    -0.01537    -0.11983    -0.00883     0.22056    -0.02915
  
  S  C  13   0.14315     0.04835     0.22058    -0.13216     0.17071    -0.04838
 PX  C  13  -0.09103    -0.16824     0.06267    -0.00140    -0.13574    -0.18524
 PY  C  13  -0.04453    -0.10410     0.03517     0.08745     0.14842    -0.14563
 PZ  C  13  -0.00450    -0.01147     0.00601     0.00160    -0.00189    -0.01503
  
  S  H  14  -0.08308    -0.01315     0.12138     0.02660     0.20878    -0.01234
  
  S  H  15   0.04289     0.15745    -0.10730     0.18480    -0.00512    -0.12786
  
  S  H  16   0.13154    -0.00731    -0.06046    -0.05991     0.14202     0.01745
  
  S  H  17  -0.12357    -0.04580     0.09429    -0.05827     0.13426     0.03510
  
  S  H  18  -0.10807     0.12030     0.12653     0.15590     0.02751     0.14492
  
  S  H  19   0.08126     0.01300    -0.10499     0.02603     0.20498    -0.01771
  
  S  H  20   0.06997     0.01507     0.10445    -0.01839     0.21330    -0.05166
  
  S  C  21   0.29763     0.03350     0.19586     0.13143     0.09710    -0.06717
 PX  C  21  -0.00961     0.14880     0.11454    -0.14303     0.02356    -0.19621
 PY  C  21  -0.01311     0.07957     0.06962    -0.05024    -0.11244    -0.07909
 PZ  C  21  -0.00164    -0.00957    -0.00688     0.01058    -0.00028     0.01160
  
  S  C  22   0.09369     0.30487     0.16891    -0.26016    -0.03847    -0.18032
 PX  C  22   0.00506     0.03113     0.02765    -0.09832     0.03623    -0.07631
 PY  C  22  -0.15076     0.04355    -0.16151    -0.12761    -0.03981     0.13789
 PZ  C  22   0.00398     0.00096     0.00468     0.00726    -0.00265    -0.00118
  
  S  C  23  -0.23184     0.20025    -0.23829    -0.21657     0.01391     0.20607
 PX  C  23   0.09080     0.10790     0.09312    -0.16897    -0.03947    -0.06379
 PY  C  23  -0.04648    -0.05145    -0.08405     0.01965     0.07576     0.07727
 PZ  C  23  -0.00335    -0.00777    -0.00319     0.01534     0.00002     0.00200
  
  S  C  24  -0.28177    -0.12318    -0.17699     0.15598     0.12684     0.01317
 PX  C  24  -0.05620     0.12381    -0.14593    -0.09065    -0.04458     0.20831
 PY  C  24  -0.02423     0.06799    -0.07851    -0.07609     0.09505     0.07762
 PZ  C  24   0.01236    -0.00366     0.01307     0.00413    -0.00551    -0.01081
  
  S  H  25   0.14707     0.01903     0.09180     0.04935     0.12088    -0.05293
  
  S  H  26   0.04890     0.16620     0.10043    -0.18661     0.00208    -0.13844
  
  S  H  27  -0.10025     0.10234    -0.12166    -0.14733     0.02966     0.11582
  
  S  H  28  -0.12772    -0.05931    -0.07923     0.06300     0.13060    -0.01729
  
  S  C  29   0.14921    -0.22195    -0.07957     0.12641    -0.08628     0.19162
 PX  C  29   0.11129     0.01551     0.06717     0.16644     0.11728     0.02495
 PY  C  29  -0.01165    -0.03258     0.12904     0.07311    -0.17843    -0.08048
 PZ  C  29  -0.00419     0.00094     0.00453     0.00200    -0.00309    -0.00498
  
  S  C  30  -0.04088    -0.26207     0.13083     0.10429    -0.10947    -0.17229
 PX  C  30  -0.04445    -0.04918    -0.11646     0.16355    -0.07434     0.09771
 PY  C  30  -0.09795    -0.01618     0.00961     0.09461     0.18236    -0.13467
 PZ  C  30   0.00064     0.00044    -0.00197     0.00478     0.00058     0.00023




    ROOT NO.   13          14          15          16          17          18

           -25.14715   -23.93765   -22.69563   -21.61746   -20.55531   -19.36410
  
  
  S  C   1   0.02587     0.11833     0.00948     0.16837    -0.03092    -0.01716
 PX  C   1   0.03830    -0.23483    -0.00773     0.00444     0.23051     0.17840
 PY  C   1  -0.15969    -0.00127    -0.18565    -0.10773    -0.12841     0.19812
 PZ  C   1  -0.01607    -0.01366    -0.02274    -0.01727    -0.00089     0.04207
  
  S  C   2   0.16813    -0.17577     0.10688    -0.10955     0.12473     0.02957
 PX  C   2   0.05884     0.04076     0.06505    -0.18551    -0.14507    -0.14011
 PY  C   2  -0.20172    -0.00135    -0.19390    -0.06141    -0.13627     0.07692
 PZ  C   2  -0.02050     0.00526    -0.02011    -0.00869    -0.01912     0.01081
  
  S  C   3  -0.14622     0.11139    -0.00557    -0.10045    -0.06488    -0.14108
 PX  C   3   0.13686     0.16161     0.13668     0.11504    -0.01015    -0.01606
 PY  C   3  -0.19081     0.07918    -0.01739     0.10148     0.12993    -0.08359
 PZ  C   3  -0.00713     0.00654    -0.00168     0.00616     0.00142    -0.00079
  
  S  C   4  -0.09456     0.09436    -0.00637     0.08301    -0.06468    -0.14911
 PX  C   4  -0.08236     0.15442     0.08376    -0.18678     0.10964    -0.06044
 PY  C   4   0.26000     0.07664     0.13691    -0.00461    -0.07560     0.03450
 PZ  C   4   0.00278     0.00172     0.00586    -0.00024     0.00545    -0.00371
  
  S  C   5   0.15390    -0.16615     0.09240     0.12979     0.11732    -0.00101
 PX  C   5  -0.07241     0.01453    -0.12677     0.17102    -0.20238    -0.02712
 PY  C   5   0.18654     0.02913     0.16410     0.08914    -0.00832    -0.17756
 PZ  C   5   0.00815    -0.00434     0.00847     0.00441     0.00705    -0.00708
  
  S  C   6  -0.04035     0.13112    -0.00167    -0.18086    -0.06162     0.02243
 PX  C   6  -0.09384    -0.13644    -0.16162     0.13564     0.02709     0.23422
 PY  C   6   0.08528    -0.18115     0.09305    -0.05294     0.24393     0.03670
 PZ  C   6   0.00363    -0.01513     0.00328    -0.00494     0.01715     0.00760
  
  S  C   7   0.11153     0.10994    -0.09004     0.22685    -0.06289     0.14169
 PX  C   7   0.03562    -0.15075    -0.17516     0.07330     0.02873     0.14757
 PY  C   7  -0.10248    -0.09754     0.05868     0.00078     0.23034    -0.03411
 PZ  C   7  -0.00497    -0.00580    -0.00317    -0.00018     0.00766     0.00037
  
  S  C   8   0.14064     0.09850    -0.05723    -0.19701    -0.07134     0.16895
 PX  C   8  -0.11673    -0.13799    -0.06841    -0.06873     0.19011     0.07462
 PY  C   8   0.05706    -0.06897    -0.17104    -0.02782    -0.11017     0.13977
 PZ  C   8  -0.00600    -0.00647    -0.00012     0.00447     0.01066    -0.00661
  
  S  C   9  -0.01718    -0.22487     0.03107     0.00384     0.01285     0.01409
 PX  C   9   0.01802    -0.05874     0.10933     0.17401    -0.17052    -0.15005
 PY  C   9  -0.01553     0.06600    -0.21405     0.07574    -0.11182    -0.07531
 PZ  C   9  -0.00109     0.00135    -0.00040     0.01212    -0.00705    -0.01169
  
  S  C  10   0.02064    -0.22958     0.02266    -0.01552     0.01014    -0.01244
 PX  C  10   0.00807     0.04604    -0.10787    -0.19426    -0.18270    -0.13670
 PY  C  10   0.00529    -0.07188     0.21644    -0.07558    -0.09652    -0.06694
 PZ  C  10  -0.00002     0.00281     0.00224    -0.00995    -0.00904    -0.00650
  
  S  C  11  -0.11872     0.10302    -0.04738    -0.20491     0.04722    -0.12129
 PX  C  11  -0.10393     0.15951     0.04768     0.09272     0.19452     0.07511
 PY  C  11   0.08062     0.07444     0.16167     0.08483    -0.09614     0.15922
 PZ  C  11  -0.00029     0.01473     0.00909     0.00552     0.00580     0.01634
  
  S  H  12  -0.14049     0.06265    -0.10043    -0.11638     0.14508    -0.13363
  
  S  C  13  -0.13383     0.09529    -0.06741     0.19222     0.05596    -0.17941
 PX  C  13   0.04249     0.14609     0.17223    -0.05137     0.02204     0.13290
 PY  C  13  -0.10898     0.10515    -0.03521    -0.03522     0.21505    -0.03363
 PZ  C  13  -0.00204     0.01563     0.00712    -0.00145     0.01351     0.00684
  
  S  H  14   0.12748     0.06705    -0.13338     0.13310    -0.16091     0.14374
  
  S  H  15   0.08053     0.14865     0.10952     0.14823    -0.03622    -0.21050
  
  S  H  16   0.21960    -0.07285     0.18319    -0.08336     0.08260    -0.07851
  
  S  H  17   0.20604    -0.07401     0.18293     0.05655     0.12617    -0.09962
  
  S  H  18   0.03883     0.15134     0.10847    -0.18940    -0.04675    -0.16345
  
  S  H  19   0.13718     0.05227    -0.10834    -0.09040    -0.15878     0.14774
  
  S  H  20  -0.14306     0.06402    -0.10558     0.08676     0.14717    -0.15397
  
  S  C  21  -0.14393    -0.18496     0.11724     0.11257    -0.11083    -0.03542
 PX  C  21  -0.07992    -0.02069     0.15385    -0.15267    -0.19463     0.01430
 PY  C  21   0.16115    -0.03622    -0.16679    -0.12964    -0.03852    -0.15158
 PZ  C  21   0.00313    -0.00121    -0.00724     0.01326     0.01158     0.00466
  
  S  C  22   0.02779     0.12978    -0.00340    -0.15827     0.04008     0.01427
 PX  C  22  -0.08521     0.13932     0.16918    -0.08123     0.01735     0.27275
 PY  C  22   0.07762     0.20544    -0.11168     0.06845     0.24332     0.02590
 PZ  C  22   0.00551    -0.01584    -0.01089     0.00054    -0.00906    -0.02255
  
  S  C  23  -0.01669     0.12927     0.00402     0.18587     0.04150    -0.02001
 PX  C  23   0.04106     0.23970    -0.01777     0.01664     0.21905     0.14638
 PY  C  23  -0.13120    -0.00313     0.19443     0.13667    -0.11406     0.17546
 PZ  C  23   0.00218    -0.02454    -0.00690    -0.00900    -0.01976    -0.02350
  
  S  C  24  -0.16019    -0.17839     0.13935    -0.10814    -0.11949     0.02553
 PX  C  24   0.06235    -0.03875    -0.07034     0.17239    -0.12708    -0.16568
 PY  C  24  -0.16350    -0.00030     0.21008     0.10944    -0.14808     0.08894
 PZ  C  24   0.00872     0.00285    -0.00972    -0.01214     0.01171     0.00487
  
  S  H  25  -0.18996    -0.08030     0.20523     0.07749    -0.09926     0.07812
  
  S  H  26  -0.03875     0.15692     0.11155    -0.13884     0.03402     0.21383
  
  S  H  27  -0.05935     0.14878     0.10067     0.17637     0.04362     0.16181
  
  S  H  28  -0.19120    -0.07553     0.21071    -0.04314    -0.10255     0.12284
  
  S  C  29   0.10495     0.10039    -0.03074     0.10850     0.06032     0.14376
 PX  C  29  -0.09276    -0.15703    -0.06903     0.14564     0.11324    -0.10984
 PY  C  29   0.22509    -0.09259    -0.14924    -0.00867    -0.07385     0.01708
 PZ  C  29   0.00533     0.00025    -0.00429    -0.00126     0.00259     0.01182
  
  S  C  30   0.11931     0.10270    -0.01842    -0.10183     0.06663     0.13789
 PX  C  30   0.13922    -0.15479    -0.15219    -0.12150    -0.01445     0.02133
 PY  C  30  -0.18519    -0.08194     0.03292    -0.13558     0.13212    -0.07056
 PZ  C  30   0.00195    -0.00042    -0.00431    -0.00590     0.00667     0.01019




    ROOT NO.   19          20          21          22          23          24

           -18.40819   -17.23693   -16.91288   -16.54454   -16.17170   -15.17348
  
  
  S  C   1  -0.15173    -0.01031     0.06893     0.08663     0.03845     0.05481
 PX  C   1   0.06655    -0.21033     0.00946    -0.06828     0.17359     0.16784
 PY  C   1   0.15477     0.17064    -0.01543    -0.03267     0.20039     0.10606
 PZ  C   1   0.03626     0.00708     0.00021    -0.01464     0.05860     0.08396
  
  S  C   2   0.15436     0.00143    -0.02594    -0.06440     0.01114     0.05057
 PX  C   2   0.10651     0.22647    -0.05784    -0.00404    -0.17965    -0.16601
 PY  C   2  -0.01664     0.05798     0.18399     0.17691    -0.03816     0.29338
 PZ  C   2   0.00290     0.01054     0.02080     0.01801     0.01245     0.07709
  
  S  C   3  -0.06891    -0.05234     0.18517     0.13264    -0.07394     0.03425
 PX  C   3  -0.17071     0.01831     0.06072     0.03663     0.23983    -0.14966
 PY  C   3  -0.07270    -0.25131    -0.05144    -0.07951    -0.04704    -0.10046
 PZ  C   3  -0.00911    -0.00957     0.00760     0.00528     0.01017     0.04340
  
  S  C   4   0.04316    -0.01773    -0.18142    -0.13418    -0.08618    -0.03388
 PX  C   4   0.10638    -0.25358     0.01704    -0.00785     0.07553     0.15683
 PY  C   4   0.11602     0.14708    -0.09251    -0.05582     0.20827     0.08594
 PZ  C   4  -0.00200    -0.00658    -0.00649    -0.00044     0.00559     0.04987
  
  S  C   5  -0.16348     0.01520     0.01770     0.06257    -0.01190    -0.05256
 PX  C   5  -0.00205     0.24779    -0.12162    -0.09085    -0.10185    -0.13548
 PY  C   5  -0.08305     0.05291     0.14454     0.13164    -0.12277     0.33508
 PZ  C   5  -0.00554    -0.00574     0.00558     0.00594    -0.00182     0.05571
  
  S  C   6   0.16195     0.02589    -0.06952    -0.08970     0.06050    -0.05039
 PX  C   6  -0.15772     0.04323     0.02763     0.08491     0.22410    -0.15508
 PY  C   6  -0.02267    -0.24051    -0.02980    -0.04110     0.01132    -0.15838
 PZ  C   6   0.00743    -0.01813    -0.00096    -0.00709     0.01252     0.04291
  
  S  C   7  -0.08941    -0.03695    -0.02461    -0.04258     0.07308     0.00260
 PX  C   7   0.17182    -0.03337    -0.16754    -0.13094    -0.18232     0.11829
 PY  C   7   0.11827    -0.01813     0.26719     0.01359    -0.05336    -0.12568
 PZ  C   7   0.00583    -0.00738     0.01167     0.00179    -0.00478     0.02070
  
  S  C   8   0.09681    -0.05417     0.04814     0.04476     0.07887    -0.00140
 PX  C   8  -0.17869    -0.06474    -0.16155     0.03924    -0.13890    -0.02528
 PY  C   8  -0.05268     0.01401     0.32513     0.13900    -0.08558    -0.15551
 PZ  C   8  -0.01183    -0.00648    -0.02304    -0.00541    -0.00837     0.02961
  
  S  C   9  -0.13648     0.14008    -0.18502     0.06429    -0.05295     0.06912
 PX  C   9   0.04297     0.14176     0.05737    -0.01938     0.06465     0.04298
 PY  C   9  -0.10379    -0.19640    -0.09409    -0.00726    -0.13631     0.02233
 PZ  C   9  -0.00327    -0.01172    -0.01148    -0.00491    -0.00462     0.01749
  
  S  C  10   0.16265     0.11486     0.17931    -0.02556    -0.07318    -0.05250
 PX  C  10   0.00572    -0.15409     0.02168     0.02428    -0.07461    -0.02239
 PY  C  10  -0.07533     0.20717    -0.04108     0.05574     0.13947     0.03477
 PZ  C  10  -0.00462    -0.01301     0.00155     0.00141    -0.00169     0.00740
  
  S  C  11  -0.11205    -0.03973    -0.00876     0.02669     0.08076    -0.02264
 PX  C  11  -0.15561     0.08466    -0.13229     0.00706     0.14598     0.04479
 PY  C  11  -0.05673     0.02953     0.17685    -0.23544     0.08542    -0.10791
 PZ  C  11  -0.01430    -0.00714     0.00116    -0.01069     0.00380    -0.01078
  
  S  H  12  -0.07665    -0.01212    -0.20117     0.19841     0.04463     0.09096
  
  S  C  13   0.08709    -0.04667     0.00256    -0.07287     0.06848     0.02105
 PX  C  13   0.15682    -0.02410    -0.07537     0.17310     0.17366     0.09148
 PY  C  13   0.12737     0.03373     0.22198    -0.15938     0.06031    -0.12514
 PZ  C  13   0.01617    -0.01130     0.00161     0.00233     0.00607    -0.00401
  
  S  H  14  -0.06302    -0.02000    -0.28921    -0.08460     0.00997     0.14134
  
  S  H  15  -0.21121    -0.02243     0.04147     0.10206    -0.21317    -0.14452
  
  S  H  16   0.13031     0.06432    -0.18277    -0.16476    -0.04078    -0.27586
  
  S  H  17  -0.13658    -0.05686     0.17632     0.17112    -0.05350     0.29394
  
  S  H  18   0.20704    -0.02827    -0.05783    -0.11805    -0.16154     0.10856
  
  S  H  19   0.07565     0.00211     0.34495     0.10882     0.03317    -0.11164
  
  S  H  20   0.07199     0.01055     0.21255    -0.23208     0.01268    -0.12454
  
  S  C  21   0.15978    -0.01920     0.01027     0.07146    -0.00649     0.01822
 PX  C  21  -0.05340    -0.21656    -0.06292     0.14779     0.13494    -0.14457
 PY  C  21  -0.11389    -0.09148     0.07678    -0.25283     0.08919     0.15994
 PZ  C  21   0.01191     0.01110    -0.00168     0.01067    -0.02421    -0.01376
  
  S  C  22  -0.15504     0.03604     0.01946    -0.12545     0.04825     0.04605
 PX  C  22  -0.14700     0.00423    -0.02030    -0.04543    -0.22126    -0.07139
 PY  C  22   0.03450     0.24342    -0.02143     0.08546    -0.01789    -0.02793
 PZ  C  22   0.00627    -0.01018    -0.00108     0.00591     0.01663    -0.01082
  
  S  C  23   0.17158    -0.03483    -0.01601     0.11679     0.04520    -0.03905
 PX  C  23   0.09411     0.17517     0.02155     0.06454    -0.18559     0.08987
 PY  C  23   0.13694    -0.18608     0.00676     0.04612    -0.20303    -0.00125
 PZ  C  23  -0.02024    -0.01528    -0.00584    -0.00636     0.02925    -0.02672
  
  S  C  24  -0.16609     0.04009    -0.01088    -0.05872    -0.00372    -0.00556
 PX  C  24   0.09421    -0.22290    -0.02731     0.02574     0.20071    -0.10603
 PY  C  24  -0.01523    -0.10543     0.08556    -0.27329    -0.01515     0.17257
 PZ  C  24  -0.00773     0.00864    -0.00603     0.01428    -0.01664    -0.02068
  
  S  H  25   0.13499    -0.03312    -0.08459     0.29364    -0.00806    -0.17659
  
  S  H  26  -0.19528     0.02172    -0.00789    -0.10087    -0.16688    -0.04034
  
  S  H  27   0.21701    -0.06215     0.00732     0.12265    -0.21561     0.02530
  
  S  H  28  -0.12616     0.03785     0.07733    -0.25278    -0.09509     0.17791
  
  S  C  29  -0.03186    -0.00580     0.09001    -0.19734    -0.10433     0.00880
 PX  C  29   0.14780     0.20968     0.01865    -0.00945    -0.09530     0.14459
 PY  C  29   0.10126    -0.16549    -0.04328     0.09669    -0.21286     0.01699
 PZ  C  29   0.00223    -0.01468    -0.00737     0.01418    -0.02822    -0.02047
  
  S  C  30   0.04673    -0.05143    -0.09729     0.21387    -0.06224    -0.03406
 PX  C  30  -0.16730     0.03268     0.01905    -0.02407    -0.22555    -0.11543
 PY  C  30  -0.05841     0.27264    -0.02430     0.10683     0.05291    -0.02248
 PZ  C  30  -0.00524    -0.00595    -0.00241     0.00632    -0.02630    -0.02199




    ROOT NO.   25          26          27          28          29          30

           -14.97841   -14.85612   -14.79247   -14.37294   -13.92543   -13.40193
  
  
  S  C   1   0.03327    -0.04210    -0.02733    -0.00373     0.03347    -0.01310
 PX  C   1  -0.20508    -0.00242     0.09725     0.03349     0.18361    -0.00599
 PY  C   1   0.04482     0.09480    -0.18559    -0.09786     0.16308    -0.06132
 PZ  C   1  -0.04937     0.02631    -0.09271     0.08966     0.08185     0.23254
  
  S  C   2  -0.05330     0.05803    -0.04255    -0.02292     0.00360     0.01885
 PX  C   2   0.17228     0.04171    -0.09953    -0.05833    -0.20460    -0.01314
 PY  C   2  -0.04626    -0.08621    -0.06794    -0.10374    -0.12936    -0.06687
 PZ  C   2  -0.03377    -0.00015    -0.09920     0.12520     0.01356     0.25279
  
  S  C   3  -0.00110    -0.01006     0.03756     0.02021     0.00391    -0.01353
 PX  C   3   0.10647     0.07384     0.01129     0.09912     0.29818     0.01115
 PY  C   3  -0.09450    -0.01492     0.16521     0.07452     0.06215     0.02262
 PZ  C   3  -0.03684     0.00347    -0.12603     0.22444     0.00085     0.29743
  
  S  C   4  -0.06349    -0.01741     0.03735     0.01964     0.03814     0.01256
 PX  C   4  -0.03494    -0.13584     0.04579     0.00613     0.07234    -0.12571
 PY  C   4   0.07570    -0.00106    -0.13309    -0.02971     0.15993    -0.07818
 PZ  C   4  -0.03102    -0.00544    -0.13858     0.21794    -0.00605     0.29592
  
  S  C   5   0.08950    -0.01411    -0.04204    -0.01734    -0.03563     0.00779
 PX  C   5  -0.02785     0.13999    -0.03505    -0.00877    -0.02776     0.11979
 PY  C   5  -0.09890     0.02570    -0.19209    -0.16276     0.00280    -0.00004
 PZ  C   5  -0.03338    -0.00025    -0.09039     0.12742     0.00884     0.25466
  
  S  C   6  -0.00639     0.03781     0.01431     0.02807     0.05878    -0.00077
 PX  C   6   0.27363    -0.05903    -0.06126     0.03021     0.04128    -0.07995
 PY  C   6  -0.01175    -0.09862     0.23563     0.12807    -0.05581    -0.02571
 PZ  C   6  -0.04058     0.00269    -0.05318     0.10693     0.02831     0.23479
  
  S  C   7  -0.06545     0.02113     0.02121     0.00584     0.01371     0.02583
 PX  C   7  -0.13390    -0.03571    -0.01356    -0.11217    -0.28372    -0.00237
 PY  C   7  -0.01878     0.33929    -0.06132    -0.04354    -0.03774     0.02962
 PZ  C   7  -0.03237     0.01545    -0.12283     0.20920    -0.03621     0.14706
  
  S  C   8   0.04673    -0.04565     0.03254     0.02648    -0.06000    -0.01080
 PX  C   8   0.14432    -0.11951    -0.14285    -0.10111    -0.16898     0.08282
 PY  C   8  -0.07988     0.14079     0.18498     0.07957    -0.13519     0.08407
 PZ  C   8  -0.01959    -0.01022    -0.14273     0.20265    -0.02936     0.15508
  
  S  C   9   0.01949     0.00475     0.00405    -0.00529    -0.00551     0.01148
 PX  C   9  -0.16621     0.14120     0.17394     0.09127     0.18826    -0.07196
 PY  C   9  -0.08718     0.08499     0.07220     0.04482     0.13150    -0.00378
 PZ  C   9  -0.04318     0.00840    -0.16041     0.28003    -0.05090     0.01446
  
  S  C  10  -0.01258    -0.02596    -0.01538    -0.00503    -0.00718    -0.01127
 PX  C  10   0.09180    -0.29947     0.03327     0.06904     0.18505    -0.02990
 PY  C  10   0.05483    -0.16741     0.05629     0.04709     0.08977    -0.03189
 PZ  C  10  -0.03426    -0.01068    -0.16165     0.28575    -0.05838     0.00559
  
  S  C  11   0.06045    -0.01579    -0.02040     0.00383     0.02546     0.02563
 PX  C  11  -0.06749     0.29202    -0.00977    -0.08532    -0.16582     0.05202
 PY  C  11  -0.15806    -0.26316    -0.03158    -0.07619    -0.12846     0.08878
 PZ  C  11  -0.05049     0.00993    -0.14679     0.22591    -0.08807    -0.12823
  
  S  H  12   0.11202     0.31557     0.01632     0.01884     0.03918    -0.03331
  
  S  C  13  -0.02708     0.05158    -0.02009    -0.01603     0.02553    -0.03553
 PX  C  13   0.11624     0.05355     0.12175     0.01323    -0.29134     0.01734
 PY  C  13   0.09865    -0.19326    -0.22028    -0.13676    -0.05576     0.02401
 PZ  C  13  -0.01918    -0.00256    -0.14554     0.21311    -0.08399    -0.11793
  
  S  H  14  -0.06410    -0.26042     0.05552    -0.01652    -0.08344    -0.01774
  
  S  H  15   0.09449    -0.09584     0.09062     0.03595    -0.22202    -0.00103
  
  S  H  16   0.09591     0.10329    -0.00715     0.02313     0.00004     0.02398
  
  S  H  17  -0.02610    -0.04537    -0.15456    -0.12482    -0.00930    -0.03535
  
  S  H  18  -0.25152     0.07003     0.07169    -0.01014    -0.01365     0.07540
  
  S  H  19  -0.09636     0.13305     0.21737     0.09698    -0.06581     0.01712
  
  S  H  20   0.01311    -0.14843    -0.22304    -0.10858     0.09198    -0.00865
  
  S  C  21   0.06210    -0.07658     0.04589     0.05056     0.00945    -0.00250
 PX  C  21  -0.03839    -0.03410    -0.12719    -0.07605    -0.08294     0.08930
 PY  C  21   0.30592     0.11531     0.02060     0.04157    -0.07455     0.02936
 PZ  C  21  -0.04765    -0.00116    -0.08795     0.15650    -0.03813    -0.24896
  
  S  C  22  -0.00023     0.04176     0.03087     0.00591    -0.05953     0.00445
 PX  C  22  -0.16408     0.12586    -0.12926    -0.08699     0.15566    -0.09938
 PY  C  22  -0.22910    -0.11957     0.10670     0.05515    -0.00860    -0.05352
 PZ  C  22  -0.02313    -0.00167    -0.06837     0.11827    -0.05555    -0.21754
  
  S  C  23   0.00685    -0.04380    -0.02289    -0.01222    -0.03595     0.01221
 PX  C  23   0.16132    -0.13889     0.14603     0.16265     0.07626     0.01865
 PY  C  23   0.22689     0.07606    -0.12046    -0.03308     0.14493     0.01702
 PZ  C  23  -0.06973     0.01980    -0.08675     0.09146    -0.05893    -0.22616
  
  S  C  24  -0.10355     0.01253     0.01621     0.01377     0.02392    -0.02515
 PX  C  24  -0.11722     0.12065    -0.17738    -0.15046    -0.11126    -0.04635
 PY  C  24   0.15853     0.10349     0.08875     0.07534    -0.13232    -0.05956
 PZ  C  24  -0.04330    -0.00213    -0.09200     0.14168    -0.03352    -0.22465
  
  S  H  25  -0.22156    -0.13379    -0.04962    -0.04142     0.03142     0.01561
  
  S  H  26  -0.14523     0.13699    -0.09978    -0.08431     0.12316    -0.08199
  
  S  H  27   0.26311    -0.03694    -0.02164     0.03928     0.14943     0.05860
  
  S  H  28   0.13133     0.02606     0.15930     0.12528    -0.03707    -0.02524
  
  S  C  29  -0.00441     0.01344    -0.05571    -0.02301    -0.01112    -0.02348
 PX  C  29   0.07224     0.00681     0.15170     0.11966     0.09110    -0.10057
 PY  C  29   0.13073     0.11406    -0.05105     0.00672     0.17364    -0.05729
 PZ  C  29  -0.04950     0.01576    -0.16097     0.24325    -0.06939    -0.27666
  
  S  C  30   0.02845     0.04522    -0.02372    -0.01103    -0.01187     0.02013
 PX  C  30  -0.08394    -0.05988    -0.11464    -0.03949     0.29154     0.02313
 PY  C  30  -0.09179    -0.15043     0.09086     0.04573     0.04200     0.04515
 PZ  C  30  -0.04474     0.00269    -0.15842     0.23126    -0.06145    -0.25814




    ROOT NO.   31          32          33          34          35          36

           -13.10395   -12.91190   -12.05444   -11.80522   -11.68985   -11.49681
  
  
  S  C   1   0.02068     0.00501     0.00420     0.00780    -0.00079    -0.00344
 PX  C   1  -0.19642    -0.04727    -0.13410     0.00832     0.08706    -0.07910
 PY  C   1   0.09157    -0.20539     0.19513    -0.01946    -0.01463    -0.11960
 PZ  C   1   0.04433     0.00233     0.04069     0.26991    -0.07936     0.09740
  
  S  C   2  -0.00598    -0.02249    -0.02581    -0.01033     0.01043     0.03767
 PX  C   2   0.17301     0.04838     0.09165    -0.04997    -0.06861     0.09796
 PY  C   2  -0.05992     0.16376    -0.24214    -0.09975     0.04831     0.16044
 PZ  C   2   0.05876     0.07840    -0.01246     0.18983    -0.06316     0.12251
  
  S  C   3   0.01841     0.02300    -0.01609     0.00574     0.01617     0.00109
 PX  C   3  -0.04445    -0.11456    -0.13340     0.07556     0.13801    -0.08034
 PY  C   3  -0.00135    -0.11536     0.30040     0.07761    -0.10063    -0.20325
 PZ  C   3   0.07745     0.09040     0.00517     0.05053    -0.02762     0.03206
  
  S  C   4  -0.01691    -0.01527     0.03245    -0.00391    -0.01844     0.00467
 PX  C   4   0.19579     0.10200     0.21294    -0.10912    -0.15111     0.09880
 PY  C   4   0.05601     0.08108    -0.23738    -0.10942     0.07739     0.22493
 PZ  C   4   0.09101     0.09685     0.01041     0.04359    -0.03179     0.04052
  
  S  C   5   0.00918    -0.01977    -0.03491     0.02185     0.03419    -0.01612
 PX  C   5  -0.20339    -0.12323    -0.17575     0.09968     0.13019    -0.10294
 PY  C   5  -0.00949    -0.19029     0.14188     0.03719    -0.00235    -0.12991
 PZ  C   5   0.06590     0.06320     0.02774     0.19307    -0.07502     0.09770
  
  S  C   6   0.01890    -0.00422     0.01837    -0.00584    -0.01252     0.01603
 PX  C   6   0.25020     0.06596     0.14332    -0.05076    -0.08715     0.08006
 PY  C   6  -0.05087     0.22658    -0.18350    -0.06430     0.01186     0.13195
 PZ  C   6   0.04083     0.05804     0.00963     0.25795    -0.08480     0.13005
  
  S  C   7  -0.03793    -0.05664    -0.01998    -0.01798     0.04280     0.03863
 PX  C   7   0.04209     0.05437     0.13755    -0.08411    -0.11651     0.10634
 PY  C   7   0.11312    -0.15476    -0.06603    -0.07292     0.10795     0.19436
 PZ  C   7   0.04442     0.04548    -0.00009    -0.14010     0.03445    -0.06018
  
  S  C   8   0.05029     0.04544    -0.03104    -0.00017     0.04313     0.01776
 PX  C   8  -0.02544    -0.16817    -0.08211     0.14935     0.16887    -0.14362
 PY  C   8  -0.12254    -0.03116     0.11910     0.08759    -0.05003    -0.18363
 PZ  C   8   0.05025     0.04614    -0.00436    -0.12951     0.04008    -0.06566
  
  S  C   9  -0.07612     0.00553    -0.00636     0.01354    -0.01169    -0.02226
 PX  C   9  -0.02913     0.14270     0.11272    -0.12703    -0.20046     0.12244
 PY  C   9   0.18197    -0.19910     0.03391    -0.07753     0.18535     0.23167
 PZ  C   9   0.00997     0.01841     0.01154    -0.29247     0.07508    -0.15190
  
  S  C  10   0.02999     0.04585    -0.00791     0.00613     0.01878    -0.00051
 PX  C  10   0.13014    -0.06522    -0.02835     0.11885     0.20569    -0.08641
 PY  C  10  -0.19216     0.20450     0.01679     0.07972    -0.18920    -0.22139
 PZ  C  10  -0.00370     0.00893     0.00717    -0.28658     0.08062    -0.17397
  
  S  C  11  -0.05936    -0.04567     0.01420     0.00295     0.04030     0.01901
 PX  C  11  -0.15909     0.02832     0.04166    -0.09968    -0.18081     0.11155
 PY  C  11  -0.04437    -0.12699     0.12073    -0.04412     0.13906     0.15596
 PZ  C  11  -0.06339    -0.04206     0.01856    -0.15857     0.02851    -0.07111
  
  S  H  12  -0.06470     0.09594    -0.07962    -0.00853    -0.21293    -0.07758
  
  S  C  13   0.06595     0.03724     0.01251    -0.01772     0.04058     0.04914
 PX  C  13   0.05493     0.03576     0.01453     0.14780     0.18562    -0.13400
 PY  C  13  -0.12362     0.10572    -0.09764     0.08404    -0.13429    -0.17020
 PZ  C  13  -0.04779    -0.00883     0.00497    -0.11844     0.04069    -0.10886
  
  S  H  14  -0.09578     0.12486     0.12306     0.02382    -0.14821    -0.11505
  
  S  H  15   0.03277     0.19347    -0.09374    -0.04094    -0.02204     0.12502
  
  S  H  16   0.12163    -0.12634     0.24876     0.03237    -0.07220    -0.09230
  
  S  H  17   0.09295    -0.10538     0.20280     0.00738    -0.06112    -0.07306
  
  S  H  18  -0.23960    -0.05857    -0.14514     0.04630     0.08517    -0.07357
  
  S  H  19  -0.07166     0.06645     0.13771     0.01950    -0.12251    -0.09832
  
  S  H  20  -0.09599     0.08821    -0.08742    -0.00885    -0.20958    -0.07416
  
  S  C  21   0.00228    -0.02603     0.01241     0.02045     0.04326    -0.00764
 PX  C  21  -0.14659    -0.21084    -0.05265    -0.09180    -0.19954     0.11543
 PY  C  21  -0.22321     0.02208     0.13295    -0.01268     0.06592     0.09187
 PZ  C  21  -0.04363    -0.04009     0.00369     0.21688    -0.03082     0.09963
  
  S  C  22   0.01266    -0.02140    -0.00730    -0.01164    -0.01100     0.00486
 PX  C  22   0.09431     0.27512     0.04427     0.08334     0.12537    -0.07437
 PY  C  22   0.25647    -0.09602    -0.15737     0.03584    -0.08145    -0.08637
 PZ  C  22  -0.06888    -0.06049     0.01462     0.28478    -0.05223     0.17651
  
  S  C  23  -0.02393    -0.01903    -0.00030     0.01324     0.00300    -0.00098
 PX  C  23  -0.07940    -0.22677    -0.03052    -0.03696    -0.13277     0.11370
 PY  C  23  -0.23643     0.14670     0.15885    -0.00429     0.09827     0.07210
 PZ  C  23  -0.03888    -0.01589     0.01932     0.30079    -0.02656     0.16200
  
  S  C  24   0.02703     0.00453     0.03278    -0.00848     0.02727     0.04272
 PX  C  24   0.06476     0.20118     0.00200     0.09233     0.10215    -0.11199
 PY  C  24   0.18050    -0.09451    -0.19661     0.07130    -0.13163    -0.11779
 PZ  C  24  -0.08413    -0.04387     0.03543     0.20565    -0.02742     0.14527
  
  S  H  25   0.11552    -0.13092    -0.14258    -0.02708    -0.15312    -0.03099
  
  S  H  26   0.09890     0.26689     0.04215     0.06425     0.12670    -0.08542
  
  S  H  27  -0.24939    -0.00600     0.12082    -0.06024     0.01445     0.11077
  
  S  H  28   0.13852    -0.17281    -0.16956    -0.00362    -0.17125    -0.04313
  
  S  C  29   0.02372     0.01582    -0.01283     0.00096    -0.00876     0.00792
 PX  C  29   0.11455     0.19757     0.07333     0.10951     0.22597    -0.10792
 PY  C  29   0.10868     0.04505    -0.20921     0.04320    -0.21203    -0.16451
 PZ  C  29  -0.08451    -0.06093     0.00118     0.04113    -0.02786     0.00771
  
  S  C  30  -0.03528    -0.01325    -0.00321     0.01358     0.00973    -0.01753
 PX  C  30  -0.09957    -0.03480    -0.02784    -0.13365    -0.21749     0.10610
 PY  C  30  -0.13977     0.02345     0.23670    -0.04622     0.22661     0.14596
 PZ  C  30  -0.09980    -0.05373     0.01826     0.04374    -0.01673     0.02287




    ROOT NO.   37          38          39          40          41          42

           -10.66850    -9.81608    -9.68871    -8.32152    -8.02517    -6.69994
  
  
  S  C   1   0.00129     0.00802     0.00377     0.00118     0.00738    -0.00365
 PX  C   1  -0.01898    -0.03540    -0.03801    -0.02117    -0.03326     0.01928
 PY  C   1  -0.02167    -0.05960    -0.05067    -0.02683    -0.05459     0.02865
 PZ  C   1   0.12097     0.26294     0.27751     0.17200     0.29139    -0.18435
  
  S  C   2   0.01466    -0.00784     0.02271     0.02205    -0.00303    -0.01310
 PX  C   2   0.00517     0.01454     0.00777    -0.00125     0.01016     0.00246
 PY  C   2  -0.02224     0.01738    -0.03365    -0.03282     0.00525     0.02035
 PZ  C   2   0.21578     0.00067     0.36686     0.32527     0.04082    -0.22267
  
  S  C   3  -0.00398     0.00797    -0.00047     0.00135     0.00460    -0.00586
 PX  C   3  -0.00914     0.00553    -0.00969    -0.00480    -0.00095    -0.00465
 PY  C   3  -0.00278    -0.01138    -0.00001     0.00830     0.00359    -0.01026
 PZ  C   3   0.20293    -0.33505     0.14741     0.08647    -0.33696     0.13819
  
  S  C   4   0.00521    -0.00069     0.00419     0.00008    -0.00357     0.00350
 PX  C   4   0.00888     0.00145     0.01128     0.00443     0.00442     0.00203
 PY  C   4   0.00615     0.01838     0.00497    -0.00942     0.00468     0.01153
 PZ  C   4  -0.22308    -0.15566    -0.31416     0.00591    -0.33982    -0.14656
  
  S  C   5   0.01045    -0.00221     0.01676     0.01382     0.00725    -0.01117
 PX  C   5  -0.00485    -0.00260    -0.00746    -0.00552    -0.00180     0.00239
 PY  C   5   0.00565    -0.02489     0.00491     0.00909    -0.00374    -0.00413
 PZ  C   5  -0.18703     0.23711    -0.30303    -0.33393    -0.05054     0.22396
  
  S  C   6  -0.00454     0.00989    -0.00682    -0.01059     0.00278     0.00890
 PX  C   6   0.00257     0.01520     0.00421    -0.00279     0.00640     0.00263
 PY  C   6   0.00707    -0.00020     0.01439     0.01751    -0.00114    -0.01471
 PZ  C   6  -0.06720     0.39538    -0.07678    -0.25825     0.23388     0.19873
  
  S  C   7  -0.00081    -0.00576    -0.00255    -0.00345    -0.00216     0.01029
 PX  C   7  -0.00013     0.00593     0.00582     0.00917     0.00855    -0.00652
 PY  C   7  -0.01779     0.01837    -0.00434     0.01009     0.00269    -0.01088
 PZ  C   7   0.30582    -0.29998     0.12172    -0.21760    -0.03508     0.39063
  
  S  C   8  -0.01333    -0.00017    -0.01016     0.00479     0.00189    -0.01255
 PX  C   8   0.01892     0.00221     0.01363    -0.01042     0.00161     0.01383
 PY  C   8  -0.01652    -0.01291    -0.00877     0.01199     0.00330    -0.01477
 PZ  C   8  -0.34327    -0.12952    -0.25372     0.21940     0.03294    -0.37710
  
  S  C   9   0.01017     0.00076     0.00166    -0.00414    -0.00553     0.00607
 PX  C   9   0.00531     0.00057    -0.00343    -0.00155    -0.01449    -0.00036
 PY  C   9   0.00913     0.01558     0.00484    -0.00221    -0.01863     0.00704
 PZ  C   9  -0.28088    -0.01288     0.01358     0.18029     0.39170     0.00146
  
  S  C  10  -0.00463     0.00570     0.00095     0.00162    -0.00204    -0.00683
 PX  C  10  -0.00684     0.01009     0.00453     0.00559    -0.02193    -0.00215
 PY  C  10  -0.00463    -0.01193    -0.00501     0.00375    -0.00493    -0.00476
 PZ  C  10   0.26484    -0.04095    -0.00761    -0.28422     0.32780     0.00286
  
  S  C  11   0.00025    -0.00053    -0.00342     0.00496     0.00057     0.00640
 PX  C  11  -0.02055    -0.02001     0.00264     0.01645     0.00787     0.02239
 PY  C  11  -0.01757    -0.00648     0.00661     0.01851    -0.00020     0.02553
 PZ  C  11   0.34910     0.23466    -0.13854    -0.20572    -0.01749    -0.36770
  
  S  H  12  -0.00219    -0.01200    -0.00346    -0.00273     0.00761    -0.00217
  
  S  C  13   0.00622     0.00600    -0.00034    -0.00272    -0.00347    -0.00336
 PX  C  13   0.02152    -0.00325    -0.01648    -0.01223    -0.00658    -0.02531
 PY  C  13   0.01820    -0.02008    -0.01602    -0.01508     0.00211    -0.02051
 PZ  C  13  -0.33710     0.14965     0.27382     0.20334     0.03309     0.36375
  
  S  H  14   0.00525    -0.00821     0.00150     0.00195     0.00274    -0.00408
  
  S  H  15   0.00465     0.02156     0.00934    -0.00051     0.01005     0.00185
  
  S  H  16  -0.00104    -0.00996    -0.00690    -0.00766    -0.00569     0.00949
  
  S  H  17  -0.00241    -0.00838    -0.00838    -0.00820    -0.00498     0.00871
  
  S  H  18  -0.00509    -0.01545    -0.00836     0.00002    -0.00916    -0.00076
  
  S  H  19  -0.00492    -0.00711    -0.00121     0.00270     0.00169     0.00116
  
  S  H  20  -0.00130    -0.01370    -0.00011    -0.00466     0.00752     0.00088
  
  S  C  21   0.00128    -0.00078    -0.00087    -0.00098     0.00200     0.00044
 PX  C  21   0.00879    -0.00685    -0.02407     0.02618     0.00029     0.01381
 PY  C  21   0.01099     0.00058    -0.01866     0.01919    -0.00095     0.01004
 PZ  C  21   0.19517    -0.01349    -0.34186     0.36361     0.04031     0.23166
  
  S  C  22  -0.00257     0.01069     0.00764    -0.00234    -0.01306    -0.00372
 PX  C  22   0.01119    -0.01475    -0.02078     0.01428     0.02312     0.01415
 PY  C  22  -0.00313    -0.00590     0.00062    -0.00014     0.00618     0.00391
 PZ  C  22   0.06944    -0.27478    -0.26155     0.19518     0.28345     0.19175
  
  S  C  23  -0.00212    -0.00798     0.00069    -0.00497     0.00379    -0.00352
 PX  C  23  -0.02251    -0.05746     0.01002    -0.03734     0.03164    -0.02547
 PY  C  23   0.00015    -0.01811    -0.00348    -0.00968     0.01288    -0.00864
 PZ  C  23  -0.11926    -0.36099     0.06222    -0.26118     0.21278    -0.18675
  
  S  C  24  -0.01527    -0.00611     0.01990    -0.02039    -0.00548    -0.01316
 PX  C  24  -0.00249     0.00752     0.01282    -0.01150    -0.01443    -0.00720
 PY  C  24  -0.01584    -0.01344     0.01899    -0.02193    -0.00686    -0.01163
 PZ  C  24  -0.21685    -0.18743     0.27860    -0.35736    -0.06573    -0.22800
  
  S  H  25  -0.00423    -0.00592     0.00293    -0.00461     0.00450    -0.00198
  
  S  H  26   0.00759     0.00371    -0.00606     0.00543     0.00667     0.00560
  
  S  H  27   0.00340    -0.00646    -0.00839     0.00488     0.00667     0.00292
  
  S  H  28  -0.00297    -0.00669    -0.00355     0.00612     0.00642     0.00776
  
  S  C  29   0.01290     0.01141    -0.00845     0.00409    -0.01262    -0.00821
 PX  C  29   0.00668     0.01595     0.00333    -0.00442    -0.00870    -0.00524
 PY  C  29  -0.01224    -0.02721     0.00740    -0.01679     0.02101    -0.00246
 PZ  C  29   0.23302     0.31258    -0.14293     0.10180    -0.32004    -0.13481
  
  S  C  30  -0.00866     0.00052     0.00767     0.00101    -0.00423     0.00609
 PX  C  30   0.00442    -0.01723    -0.01280     0.00260     0.02312     0.00241
 PY  C  30   0.00954     0.01694    -0.00885     0.01425    -0.00392     0.00521
 PZ  C  30  -0.21646     0.20103     0.31369    -0.00549    -0.34464     0.14322




    ROOT NO.   43          44          45          46          47          48

            -1.07464     0.15823     0.29725     1.26809     1.31064     1.84282
  
  
  S  C   1   0.01126    -0.01583    -0.01875    -0.02761    -0.03344    -0.02246
 PX  C   1  -0.01277     0.02400     0.00760     0.00434     0.02760    -0.00060
 PY  C   1  -0.03428     0.03837     0.03578     0.03453     0.04689     0.01727
 PZ  C   1   0.20219    -0.26725    -0.20700    -0.20173    -0.33510    -0.09955
  
  S  C   2  -0.02372     0.00216     0.03863     0.04868     0.01772     0.03430
 PX  C   2   0.00656    -0.00410    -0.00601    -0.00729    -0.00784    -0.00352
 PY  C   2   0.02242    -0.00526    -0.02947    -0.03635    -0.01269    -0.01984
 PZ  C   2  -0.22461     0.01023     0.31788     0.36055     0.10346     0.19986
  
  S  C   3   0.00989    -0.00315    -0.01969    -0.02447    -0.00872    -0.02080
 PX  C   3  -0.00601    -0.00352     0.00874     0.01519    -0.00251     0.00644
 PY  C   3   0.00080    -0.00395     0.00938     0.01957     0.00359     0.01676
 PZ  C   3  -0.14898     0.34208    -0.04779    -0.24683     0.27435    -0.20953
  
  S  C   4  -0.00906    -0.00340     0.00817     0.01676    -0.00518     0.00661
 PX  C   4   0.00360     0.00274    -0.00397    -0.00074     0.00327    -0.00212
 PY  C   4  -0.00234     0.00378    -0.00203    -0.00328    -0.00177    -0.00906
 PZ  C   4  -0.14592    -0.34370    -0.03693    -0.27007    -0.24676    -0.22065
  
  S  C   5   0.00952    -0.00677    -0.01303    -0.02638    -0.00655    -0.01812
 PX  C   5  -0.00235     0.00469     0.00445     0.00034     0.00527     0.00098
 PY  C   5   0.00981     0.00687    -0.01484    -0.01676     0.01705    -0.00877
 PZ  C   5  -0.22781     0.00144     0.31959     0.35412    -0.15271     0.19061
  
  S  C   6   0.00214     0.01385    -0.00183     0.00681     0.02493     0.00752
 PX  C   6   0.00099     0.00336     0.00016     0.00381     0.00570     0.00348
 PY  C   6  -0.00638    -0.02071     0.00701     0.00722    -0.03061     0.00238
 PZ  C   6   0.19574     0.26509    -0.21345    -0.18008     0.36736    -0.08371
  
  S  C   7   0.00250    -0.00130     0.00622     0.01144     0.00317     0.02159
 PX  C   7  -0.00220    -0.00599    -0.00009    -0.01315    -0.00025    -0.00981
 PY  C   7  -0.01535    -0.00259     0.01152    -0.01088     0.00955    -0.01086
 PZ  C   7   0.38753    -0.01187    -0.21706     0.19148    -0.22923     0.30779
  
  S  C   8   0.01745     0.00447    -0.00795    -0.00038     0.01149     0.01991
 PX  C   8  -0.01531     0.00510     0.01701    -0.01003    -0.00829    -0.01228
 PY  C   8   0.00988    -0.00020    -0.00363     0.01094     0.00467     0.01459
 PZ  C   8   0.38142    -0.00397    -0.21525     0.20603     0.20609     0.32342
  
  S  C   9  -0.00533    -0.00962    -0.00847     0.00757    -0.00472    -0.00411
 PX  C   9   0.00197    -0.01738    -0.01603     0.00406     0.00303     0.01585
 PY  C   9  -0.00635    -0.01331    -0.01431     0.00336    -0.00087     0.00238
 PZ  C   9  -0.00054     0.36819     0.23684     0.01604    -0.02478    -0.29329
  
  S  C  10   0.00215     0.00752    -0.00940     0.00186    -0.00245    -0.01014
 PX  C  10  -0.00406     0.01738    -0.01289     0.00594    -0.00366     0.00963
 PY  C  10   0.00399     0.01158    -0.00278     0.00337     0.00207     0.01339
 PZ  C  10  -0.01545    -0.36313     0.24763     0.00523     0.03984    -0.26927
  
  S  C  11  -0.00200    -0.00975     0.00837    -0.00405     0.01035     0.00595
 PX  C  11   0.01915    -0.00493     0.00815     0.00548    -0.00466    -0.01379
 PY  C  11   0.01677    -0.00793     0.01219     0.00522    -0.00233    -0.01254
 PZ  C  11  -0.34858     0.01103    -0.20403    -0.19553     0.18712     0.34267
  
  S  H  12   0.00189     0.00284     0.00273    -0.00394    -0.00336     0.00297
  
  S  C  13   0.00381     0.00904     0.01340    -0.01498    -0.00200     0.00443
 PX  C  13   0.02349     0.00537     0.01769     0.00010     0.00574    -0.00518
 PY  C  13   0.01959    -0.00141     0.00913     0.01073     0.00888    -0.01399
 PZ  C  13  -0.36261    -0.00019    -0.20058    -0.22293    -0.19986     0.34652
  
  S  H  14  -0.00145     0.00029     0.00166    -0.00570     0.00119    -0.01224
  
  S  H  15  -0.00332     0.01287     0.00949     0.01653     0.02656     0.01463
  
  S  H  16   0.00967     0.00510    -0.01896    -0.02792    -0.00301    -0.01942
  
  S  H  17  -0.00547     0.00860     0.01017     0.01879     0.00817     0.01445
  
  S  H  18  -0.00444    -0.00350     0.00465    -0.00066    -0.00961    -0.00215
  
  S  H  19  -0.00921    -0.00154     0.00950    -0.00326    -0.00878    -0.01697
  
  S  H  20  -0.00171    -0.00454    -0.00059    -0.00073     0.00212     0.00514
  
  S  C  21  -0.00416    -0.01140     0.00167    -0.00448     0.01558     0.00796
 PX  C  21   0.01819     0.01111     0.01823    -0.01013    -0.01771     0.00119
 PY  C  21   0.00864     0.00088     0.01105    -0.00793    -0.00411     0.00409
 PZ  C  21   0.22493     0.00130     0.37040    -0.30488    -0.10423     0.18740
  
  S  C  22   0.01336     0.01014     0.01346    -0.00915    -0.01348     0.00467
 PX  C  22  -0.01622    -0.01835    -0.01704     0.01254     0.02218    -0.00656
 PY  C  22  -0.00388    -0.01194     0.00256    -0.00819     0.01791     0.01158
 PZ  C  22  -0.19736    -0.25262    -0.22598     0.15845     0.33358    -0.06896
  
  S  C  23  -0.01043     0.00305    -0.02779     0.03707    -0.01189    -0.03632
 PX  C  23  -0.01973     0.02968    -0.01830     0.00371    -0.03551     0.00013
 PY  C  23  -0.00816     0.01500    -0.01206     0.01020    -0.02303    -0.00997
 PZ  C  23  -0.18774     0.23842    -0.24778     0.15805    -0.33332    -0.11238
  
  S  C  24   0.01882     0.00813     0.04471    -0.05570     0.00595     0.05044
 PX  C  24   0.01491    -0.00807     0.01709    -0.00983     0.01398     0.00703
 PY  C  24   0.01412    -0.00670     0.01743    -0.00993     0.01318     0.00639
 PZ  C  24   0.23030     0.01671     0.37281    -0.30590     0.10662     0.20958
  
  S  H  25  -0.00210     0.00361     0.00036    -0.00368    -0.00462     0.00259
  
  S  H  26  -0.00839    -0.01000    -0.00612     0.00225     0.01249     0.00072
  
  S  H  27   0.00290    -0.00212     0.01560    -0.02482     0.00955     0.02572
  
  S  H  28  -0.01330    -0.00554    -0.02587     0.03017    -0.00312    -0.02751
  
  S  C  29   0.00882     0.02867    -0.00493     0.00854    -0.03023    -0.01277
 PX  C  29  -0.00225    -0.00039    -0.00561     0.00942     0.00129    -0.00728
 PY  C  29  -0.00880    -0.00810     0.00774    -0.01769     0.00889     0.01834
 PZ  C  29   0.14698     0.32799    -0.07369     0.22714    -0.27311    -0.23038
  
  S  C  30  -0.00417    -0.02151    -0.02064     0.03300     0.01602    -0.02682
 PX  C  30  -0.01368     0.00747    -0.00569    -0.00309    -0.00783     0.00063
 PY  C  30  -0.00575     0.00886    -0.01656     0.01950    -0.01537    -0.01899
 PZ  C  30   0.13374    -0.34370    -0.05763     0.24966     0.27779    -0.23285




    ROOT NO.   49          50          51          52          53          54

             2.29499     2.46522     2.75288     3.15779     3.23871     3.32334
  
  
  S  C   1   0.10079    -0.05489     0.18438     0.02926    -0.22203    -0.13604
 PX  C   1   0.00063    -0.03438     0.02068    -0.00773     0.01526    -0.06437
 PY  C   1  -0.02110    -0.04131     0.00929    -0.04958    -0.04929     0.03165
 PZ  C   1   0.21248     0.19811     0.07234     0.22625     0.02785     0.06760
  
  S  C   2  -0.11691     0.09641    -0.21245    -0.02032     0.16011     0.18881
 PX  C   2  -0.00535     0.03106    -0.00679     0.02078    -0.04566     0.01630
 PY  C   2  -0.01799     0.06931    -0.05393     0.05088     0.01739     0.05441
 PZ  C   2  -0.14972    -0.16167    -0.06425    -0.25021    -0.02716    -0.07195
  
  S  C   3   0.14879    -0.20251     0.26760    -0.07556    -0.11231    -0.19603
 PX  C   3   0.00423    -0.01876    -0.03012     0.01003     0.11251    -0.08495
 PY  C   3   0.01069    -0.05305     0.02143    -0.07109    -0.01964     0.10842
 PZ  C   3   0.04821     0.04435     0.10878     0.31586    -0.02894     0.04686
  
  S  C   4  -0.13187     0.21266    -0.22946     0.15186     0.17911    -0.16129
 PX  C   4  -0.02191     0.02789    -0.00062    -0.01477    -0.07918     0.02293
 PY  C   4   0.00918    -0.00083     0.05731     0.00243    -0.05686    -0.14834
 PZ  C   4  -0.06066    -0.02874    -0.13351    -0.31568     0.04585    -0.03034
  
  S  C   5   0.08905    -0.13389     0.17488    -0.12930    -0.23555     0.13794
 PX  C   5   0.02904    -0.05449     0.03900    -0.03750    -0.00343     0.04581
 PY  C   5  -0.02172    -0.00832    -0.02680    -0.02317     0.04190     0.00299
 PZ  C   5   0.19411     0.11982     0.13480     0.24197    -0.02925     0.03995
  
  S  C   6  -0.08238     0.06594    -0.15241     0.03619     0.24718    -0.06056
 PX  C   6  -0.02021     0.01928    -0.03195     0.00864     0.02793     0.00714
 PY  C   6   0.01867     0.03147     0.01695     0.05539    -0.01355    -0.07719
 PZ  C   6  -0.23483    -0.18153    -0.10086    -0.22533    -0.01492    -0.04585
  
  S  C   7  -0.14615     0.21078    -0.17176     0.02594    -0.13143     0.25452
 PX  C   7   0.00913    -0.01386     0.07698    -0.02905    -0.12361    -0.02285
 PY  C   7  -0.03964     0.04434     0.00035    -0.00497    -0.09584     0.01987
 PZ  C   7   0.10889     0.09092    -0.02738    -0.16733     0.03995    -0.01410
  
  S  C   8   0.13543    -0.21732     0.12541    -0.07896     0.07440     0.30937
 PX  C   8   0.03440    -0.02371    -0.05344     0.02189     0.14065     0.04634
 PY  C   8  -0.02021     0.02533    -0.04605     0.03762     0.06159     0.00004
 PZ  C   8  -0.11176    -0.09550     0.04403     0.17299    -0.05390    -0.01507
  
  S  C   9  -0.17086     0.23629    -0.02320     0.01935    -0.29725    -0.27376
 PX  C   9  -0.02468    -0.00578     0.06093    -0.03535    -0.05928     0.07325
 PY  C   9  -0.00104    -0.03061     0.05993    -0.00129     0.08817    -0.11396
 PZ  C   9   0.24762     0.24056     0.02865    -0.04738     0.06241     0.02882
  
  S  C  10   0.17192    -0.23909     0.06699     0.02594     0.36523    -0.13719
 PX  C  10  -0.00675     0.03982    -0.06261     0.02830    -0.02166    -0.07523
 PY  C  10   0.02377    -0.01857    -0.04165     0.00040     0.07730     0.17442
 PZ  C  10  -0.24809    -0.24053    -0.04625     0.04557    -0.06784    -0.02395
  
  S  C  11  -0.14163     0.18510     0.06470    -0.06876    -0.21147     0.21321
 PX  C  11   0.02247    -0.05062     0.06729    -0.01758     0.11270    -0.00340
 PY  C  11  -0.03033     0.01846     0.05243    -0.02583     0.01750     0.03242
 PZ  C  11   0.10850     0.12858     0.09694     0.10233     0.06775     0.03505
  
  S  H  12   0.07188    -0.09770    -0.04357     0.03509     0.11934    -0.07229
  
  S  C  13   0.15315    -0.18504    -0.12444     0.02410     0.10223     0.24644
 PX  C  13   0.02907    -0.00146    -0.09612     0.03409    -0.08948    -0.01991
 PY  C  13  -0.02041     0.04554    -0.02072     0.01745    -0.06430    -0.04362
 PZ  C  13  -0.11415    -0.11669    -0.06580    -0.09638    -0.04575    -0.05662
  
  S  H  14   0.07467    -0.11705     0.09375    -0.02673     0.07285    -0.11388
  
  S  H  15  -0.06939     0.03353    -0.12178    -0.02366     0.13853     0.10414
  
  S  H  16   0.05760    -0.04522     0.11167     0.01478    -0.10331    -0.07080
  
  S  H  17  -0.04897     0.07248    -0.10721     0.07912     0.14997    -0.04990
  
  S  H  18   0.04913    -0.04511     0.09300    -0.02568    -0.15652     0.05626
  
  S  H  19  -0.07560     0.13104    -0.08933     0.04086    -0.06587    -0.17377
  
  S  H  20  -0.07786     0.09975     0.06468    -0.02327    -0.08273    -0.10500
  
  S  C  21  -0.09822     0.12622     0.18312    -0.13641     0.05841     0.23412
 PX  C  21   0.02112    -0.04704    -0.02388     0.01387     0.04191    -0.04644
 PY  C  21  -0.01298     0.00153     0.02616    -0.01084     0.03738     0.00368
 PZ  C  21  -0.23422    -0.11687     0.12105     0.21294     0.03825     0.04005
  
  S  C  22   0.06865    -0.09402    -0.16847     0.13783    -0.13919    -0.14094
 PX  C  22  -0.00490     0.03380     0.03470    -0.03069     0.02234     0.00183
 PY  C  22   0.01365     0.01580    -0.02439    -0.00791    -0.06143     0.08155
 PZ  C  22   0.31340     0.17024    -0.10965    -0.19461    -0.02503    -0.05972
  
  S  C  23  -0.11832     0.09109     0.24147    -0.11102     0.23900    -0.06305
 PX  C  23  -0.00498    -0.03391    -0.01993     0.00279     0.00124     0.06843
 PY  C  23  -0.01989    -0.01949     0.00534     0.03017     0.01291    -0.05785
 PZ  C  23  -0.28189    -0.19200     0.05688     0.21026    -0.01473     0.07229
  
  S  C  24   0.15389    -0.11647    -0.26882     0.06748    -0.18662     0.13839
 PX  C  24  -0.00243     0.02471    -0.00282     0.01111    -0.04813    -0.02837
 PY  C  24  -0.02198     0.04773     0.04253    -0.02035    -0.00229    -0.03457
 PZ  C  24   0.17800     0.14975    -0.03100    -0.21792     0.02340    -0.09383
  
  S  H  25   0.05708    -0.06952    -0.11822     0.08594    -0.05491    -0.11961
  
  S  H  26  -0.03780     0.05718     0.09441    -0.08149     0.07330     0.09961
  
  S  H  27   0.08749    -0.06420    -0.17544     0.07706    -0.17837     0.06022
  
  S  H  28  -0.08650     0.06078     0.15738    -0.04009     0.11378    -0.05368
  
  S  C  29   0.14809    -0.17686    -0.21591     0.10823     0.01776    -0.21696
 PX  C  29  -0.01922     0.02516    -0.00971     0.01972    -0.04505    -0.06218
 PY  C  29   0.01622    -0.00730    -0.07407     0.01696    -0.08179     0.10034
 PZ  C  29   0.05702     0.01259    -0.12895    -0.25637    -0.06682    -0.03775
  
  S  C  30  -0.17403     0.17994     0.27592    -0.07179     0.08093    -0.12732
 PX  C  30  -0.00848    -0.00719     0.05798    -0.03641     0.06486     0.09620
 PY  C  30  -0.00199    -0.02443     0.01153     0.01484     0.06378    -0.11123
 PZ  C  30  -0.03720    -0.02357     0.08834     0.24585     0.03222     0.09375




    ROOT NO.   55          56          57          58          59          60

             3.54889     3.62610     3.70047     3.84009     4.24789     4.27314
  
  
  S  C   1   0.07715    -0.32874    -0.24262     0.07670    -0.13138     0.01011
 PX  C   1  -0.00981     0.06110     0.01916     0.08934    -0.14074    -0.00121
 PY  C   1  -0.01131    -0.07582    -0.02462    -0.06972     0.08746    -0.01442
 PZ  C   1   0.09389     0.08674     0.04014    -0.03837     0.03657    -0.00150
  
  S  C   2  -0.04044     0.08273     0.09332    -0.19541     0.33185     0.00414
 PX  C   2   0.03476    -0.14152    -0.09781    -0.03233     0.00941    -0.00073
 PY  C   2   0.04183    -0.07525    -0.06628    -0.04089    -0.02182    -0.00648
 PZ  C   2  -0.12334    -0.10013    -0.04403     0.05173    -0.07957    -0.00611
  
  S  C   3  -0.07109     0.21988     0.16794     0.20012    -0.08792     0.05202
 PX  C   3  -0.01697     0.02487    -0.03027     0.05246     0.14222     0.05758
 PY  C   3  -0.04766     0.09733     0.12148    -0.10486     0.08241    -0.03021
 PZ  C   3   0.22555     0.10310     0.01741    -0.04211     0.05011     0.00915
  
  S  C   4   0.07962    -0.20008    -0.24854     0.11299     0.01304     0.04883
 PX  C   4  -0.00444    -0.08685     0.00342    -0.08974     0.20708     0.01906
 PY  C   4  -0.02290     0.04521     0.05690     0.11894     0.06315     0.07552
 PZ  C   4  -0.22447    -0.08921    -0.01195     0.02833    -0.04165    -0.01573
  
  S  C   5  -0.05262    -0.06959     0.09860    -0.20893     0.34333     0.01074
 PX  C   5  -0.03168     0.13535     0.11334     0.01030    -0.07449    -0.00180
 PY  C   5  -0.02998     0.08987     0.06716     0.01351     0.01709     0.00882
 PZ  C   5   0.12431     0.07092     0.03172    -0.02818     0.04719     0.01000
  
  S  C   6  -0.04435     0.33858     0.16807     0.16515    -0.17975     0.02283
 PX  C   6   0.00423     0.00065    -0.00840    -0.01260    -0.00358    -0.01520
 PY  C   6   0.04418    -0.08435    -0.10067     0.08004    -0.14226    -0.00015
 PZ  C   6  -0.09155    -0.09165    -0.04330     0.01693    -0.02070    -0.00471
  
  S  C   7   0.05874    -0.14541     0.00941    -0.20037    -0.22003    -0.15063
 PX  C   7  -0.01655     0.07309     0.09982     0.06765    -0.09990     0.01728
 PY  C   7   0.00472     0.02110     0.06060     0.03866    -0.00565     0.05346
 PZ  C   7  -0.21756    -0.07572     0.01152     0.03508    -0.02074    -0.00033
  
  S  C   8   0.00868     0.11322    -0.01653    -0.17886    -0.28890    -0.16918
 PX  C   8   0.01618    -0.06538    -0.13315     0.03656     0.01762     0.05964
 PY  C   8   0.03299    -0.03468    -0.07354     0.00214    -0.07579    -0.02451
 PZ  C   8   0.21374     0.06094    -0.00855    -0.00938     0.05039     0.03318
  
  S  C   9  -0.03099     0.04051     0.22451     0.05743     0.05249    -0.09046
 PX  C   9   0.00440     0.06514     0.02363    -0.09857    -0.13053    -0.12342
 PY  C   9  -0.00554     0.04278    -0.08498    -0.03883     0.07635    -0.15497
 PZ  C   9  -0.30070    -0.09005     0.03509     0.02646    -0.02857    -0.03696
  
  S  C  10  -0.00020    -0.00824    -0.22173     0.00428     0.17065    -0.07134
 PX  C  10  -0.00229    -0.05327     0.07088    -0.06280     0.01281    -0.15906
 PY  C  10   0.02042    -0.05773    -0.07722    -0.09067    -0.09638    -0.00794
 PZ  C  10   0.31069     0.10228    -0.03732    -0.03508     0.01878     0.00718
  
  S  C  11  -0.03523     0.10732    -0.04090     0.08986    -0.09290     0.35245
 PX  C  11   0.00184     0.04092    -0.14417     0.04672     0.06017     0.02881
 PY  C  11  -0.00052     0.04624    -0.08794     0.03026     0.03581    -0.04298
 PZ  C  11  -0.25995    -0.09129     0.03877     0.02230    -0.00728    -0.01358
  
  S  H  12   0.03396    -0.07453     0.02231    -0.04285     0.05146    -0.29311
  
  S  C  13   0.05248    -0.14674     0.04116     0.10968    -0.02435     0.39079
 PX  C  13   0.01129    -0.04720     0.12911     0.08342    -0.00124    -0.05427
 PY  C  13  -0.01173    -0.00945     0.06553     0.04433    -0.00256     0.05467
 PZ  C  13   0.24001     0.07364    -0.02850    -0.03128     0.01032     0.02789
  
  S  H  14  -0.04169     0.10157     0.00615     0.12662     0.19713     0.15718
  
  S  H  15  -0.04793     0.20176     0.15124    -0.06740     0.07021    -0.02210
  
  S  H  16   0.03491    -0.06394    -0.06291     0.09111    -0.24997    -0.02222
  
  S  H  17   0.04112     0.03798    -0.07414     0.11503    -0.27842    -0.02705
  
  S  H  18   0.03151    -0.22293    -0.11336    -0.12397     0.09993    -0.03165
  
  S  H  19  -0.01434    -0.09786     0.02603     0.12601     0.27473     0.17911
  
  S  H  20  -0.02832     0.10319    -0.02922    -0.06038     0.00335    -0.33935
  
  S  C  21   0.10406     0.00418    -0.07793     0.34159     0.13282    -0.19444
 PX  C  21   0.05253    -0.09562     0.14011     0.03181     0.01408    -0.06393
 PY  C  21   0.03515    -0.05699     0.07542     0.00778    -0.01716     0.02589
 PZ  C  21  -0.17457    -0.06157     0.03457     0.01544    -0.00154    -0.01085
  
  S  C  22  -0.19415     0.17077    -0.19509    -0.24252    -0.04439     0.06789
 PX  C  22   0.02127    -0.00502     0.00327    -0.00302     0.00403    -0.02774
 PY  C  22  -0.02380     0.07253    -0.11166     0.12017     0.05869    -0.06797
 PZ  C  22   0.12613     0.05278    -0.03207    -0.04223    -0.00633     0.01903
  
  S  C  23   0.17307    -0.22278     0.29059    -0.07521    -0.05942     0.03227
 PX  C  23   0.04782    -0.06127     0.07682     0.13349     0.02966    -0.10150
 PY  C  23  -0.02902    -0.00351     0.01301    -0.10633    -0.03553     0.02408
 PZ  C  23  -0.14771    -0.02381    -0.00259     0.04401     0.00741    -0.01148
  
  S  C  24  -0.00705     0.02855    -0.01752     0.28430     0.08403    -0.22473
 PX  C  24  -0.07457     0.11357    -0.15366    -0.05261     0.01416     0.02979
 PY  C  24  -0.02000     0.06337    -0.08725    -0.00432     0.03853    -0.07506
 PZ  C  24   0.17005     0.04037    -0.01366    -0.08364    -0.01625     0.05228
  
  S  H  25  -0.07410     0.00048     0.04924    -0.22257    -0.10993     0.19743
  
  S  H  26   0.11181    -0.09794     0.11060     0.15330     0.01982     0.00370
  
  S  H  27  -0.12928     0.17045    -0.22655     0.06143     0.04203     0.02510
  
  S  H  28  -0.00157    -0.01802     0.00081    -0.18713    -0.07350     0.23820
  
  S  C  29   0.04658    -0.18088     0.30917    -0.13152    -0.04793    -0.08248
 PX  C  29  -0.05535     0.05055    -0.03069    -0.15395    -0.06692     0.12048
 PY  C  29   0.01123    -0.04065     0.08558     0.09013    -0.03814     0.11257
 PZ  C  29   0.28407     0.12151    -0.08708    -0.01779     0.00847     0.02775
  
  S  C  30  -0.08523     0.18233    -0.26848    -0.19397     0.02378    -0.03851
 PX  C  30   0.01656    -0.01379    -0.04088     0.00338    -0.01399     0.19296
 PY  C  30   0.01971    -0.07275     0.11539    -0.14461    -0.04886     0.03842
 PZ  C  30  -0.26918    -0.10483     0.06780     0.06243    -0.00578    -0.02293




    ROOT NO.   61          62          63          64          65          66

             5.10906     5.28322     5.46812     5.70981     6.15103     6.43534
  
  
  S  C   1  -0.01011    -0.03147    -0.26860    -0.13650    -0.06694     0.01825
 PX  C   1   0.03544    -0.09630     0.12062     0.19171     0.15060    -0.05587
 PY  C   1  -0.01629     0.11343     0.25666     0.04931     0.01087    -0.00199
 PZ  C   1  -0.00066     0.01917     0.07235     0.02711     0.01305    -0.00402
  
  S  C   2  -0.05156     0.13940    -0.14011    -0.22351    -0.15795     0.05750
 PX  C   2  -0.01502     0.00483    -0.19801    -0.12428    -0.06875     0.02252
 PY  C   2   0.00211    -0.01492     0.05792     0.12419     0.20723    -0.13274
 PZ  C   2   0.00783    -0.02394     0.01375     0.03853     0.04001    -0.02070
  
  S  C   3   0.01752    -0.03134     0.08496    -0.01893    -0.15844     0.11952
 PX  C   3  -0.06703     0.16792    -0.01777    -0.09678     0.07176    -0.08701
 PY  C   3   0.00584     0.01261    -0.03917    -0.10137    -0.17265     0.10395
 PZ  C   3  -0.00192     0.00568    -0.00411    -0.00950    -0.00881     0.00460
  
  S  C   4  -0.04099     0.06906    -0.01699     0.02968     0.15729    -0.10317
 PX  C   4   0.02534    -0.10707    -0.04653     0.11774     0.11716    -0.05584
 PY  C   4   0.02204    -0.07187     0.08394     0.03682    -0.14658     0.13852
 PZ  C   4  -0.00086     0.00548     0.00297    -0.00300    -0.00242    -0.00052
  
  S  C   5   0.03541    -0.15440    -0.10422     0.14554     0.15495    -0.06360
 PX  C   5   0.02049    -0.04675    -0.01008    -0.03983    -0.13144     0.08549
 PY  C   5   0.02881    -0.15069    -0.19104     0.08929     0.16120    -0.09006
 PZ  C   5   0.00514    -0.02279    -0.01533     0.01826     0.01973    -0.00817
  
  S  C   6   0.04292    -0.19855    -0.23955     0.04748     0.06083    -0.02187
 PX  C   6  -0.02425     0.15454     0.26311    -0.02880    -0.08191     0.03532
 PY  C   6  -0.01658     0.04846    -0.07254    -0.12671    -0.10627     0.03682
 PZ  C   6  -0.00456     0.01479    -0.00351    -0.01805    -0.01358     0.00456
  
  S  C   7   0.10295    -0.22900     0.01304     0.10549    -0.10158     0.10996
 PX  C   7   0.02518    -0.06885     0.02085    -0.01334    -0.13042     0.10842
 PY  C   7  -0.03685     0.08284     0.00501    -0.10630     0.08680    -0.19615
 PZ  C   7  -0.00373     0.00657     0.00198    -0.00462     0.00557    -0.00906
  
  S  C   8  -0.04501     0.15546    -0.07028    -0.10782     0.07379    -0.10216
 PX  C   8  -0.02285    -0.04727    -0.01942     0.10604    -0.00160     0.16508
 PY  C   8  -0.02913     0.08822    -0.06679    -0.06799     0.14572    -0.21806
 PZ  C   8   0.00332    -0.01960     0.00442     0.01494    -0.00766     0.02007
  
  S  C   9   0.04396     0.04839     0.04170    -0.12727    -0.00218    -0.18203
 PX  C   9  -0.03787     0.12516    -0.04606    -0.06914     0.06523    -0.07590
 PY  C   9  -0.01915     0.07166    -0.04805     0.10519     0.05913     0.17803
 PZ  C   9  -0.00238     0.01679    -0.00438    -0.00545     0.00730    -0.00504
  
  S  C  10   0.00323    -0.00340    -0.01698     0.12573     0.01354     0.13485
 PX  C  10   0.10650    -0.12409     0.05763    -0.05182    -0.09115    -0.12024
[...]
  S   H   18   -0.0973    0.0409   -0.0251   -0.0469   -0.0001    0.0045    0.3216   -0.0024
  S   H   19   -0.1367    0.2514    0.1585    0.2011   -0.1353   -0.0137    0.0515    0.1680
  S   H   20    0.1659    0.2913    0.2562   -0.0788   -0.1068    0.0648   -0.0091   -0.2239
  S   C   21    0.1080    0.0426   -0.0301    0.0106   -0.0011    0.0568   -0.0009    0.0604
  Px  C   21    0.1053    0.0576   -0.2700    0.1569   -0.1670   -0.1077    0.0048   -0.0027
  Py  C   21   -0.1414   -0.0799    0.0999   -0.0567    0.0465    0.2694   -0.0035    0.2434
  Pz  C   21   -0.0022   -0.0007    0.0047   -0.0033    0.0077   -0.0050   -0.0003   -0.0102
  S   C   22    0.0716    0.0362    0.0497   -0.0278    0.0276   -0.0960    0.0005   -0.0786
  Px  C   22    0.0899    0.0450    0.0300   -0.0182    0.0072    0.5002   -0.0019    0.2651
  Py  C   22    0.0635    0.0203   -0.0455    0.0236   -0.0316   -0.0800    0.0008    0.0639
  Pz  C   22   -0.0043   -0.0022    0.0037   -0.0017    0.0014   -0.0357    0.0002   -0.0215
  S   C   23   -0.0162    0.0018    0.0391   -0.0202    0.0221    0.1471   -0.0004   -0.0301
  Px  C   23   -0.0854   -0.0381    0.0138   -0.0093    0.0059   -0.2301   -0.0007    0.1755
  Py  C   23    0.0228    0.0215    0.0972   -0.0578    0.0583   -0.4389    0.0009   -0.0233
  Pz  C   23    0.0050    0.0015   -0.0080    0.0050   -0.0049    0.0419    0.0000   -0.0196
  S   C   24   -0.0861   -0.0418   -0.0009   -0.0042    0.0146   -0.0847   -0.0003    0.1048
  Px  C   24    0.0273    0.0090   -0.0380    0.0207   -0.0322   -0.2200   -0.0001    0.1597
  Py  C   24   -0.1856   -0.1693   -0.2638    0.1667   -0.1771    0.2050   -0.0000   -0.2668
  Pz  C   24    0.0189    0.0119    0.0122   -0.0078    0.0101    0.0036    0.0001   -0.0022
  S   H   25   -0.1912   -0.0925    0.1929   -0.1080    0.1012    0.1741   -0.0035    0.1200
  S   H   26   -0.1151   -0.0562   -0.0271    0.0156   -0.0053   -0.3173    0.0010   -0.1641
  S   H   27    0.0324    0.0071   -0.0678    0.0388   -0.0366    0.2719   -0.0001   -0.0422
  S   H   28    0.1718    0.1315    0.1681   -0.1048    0.1043   -0.1597    0.0000    0.1732
  S   C   29    0.1289    0.0816   -0.2281    0.1353   -0.1764   -0.0075    0.0009    0.0353
  Px  C   29   -0.0807   -0.0420   -0.0397    0.0354   -0.0777   -0.0961    0.0060   -0.0349
  Py  C   29    0.1645    0.1635    0.0467   -0.0414    0.1011   -0.0062   -0.0016   -0.0302
  Pz  C   29   -0.0071   -0.0015    0.0258   -0.0153    0.0171    0.0010   -0.0001   -0.0037
  S   C   30   -0.1645   -0.1470   -0.1752    0.1146   -0.1571   -0.0338    0.0019    0.0227
  Px  C   30   -0.0850   -0.0988    0.0597   -0.0280    0.0580    0.0965    0.0003   -0.2727
  Py  C   30    0.1248    0.0888   -0.1218    0.0837   -0.1436    0.0681   -0.0018   -0.1115
  Pz  C   30    0.0058    0.0053    0.0112   -0.0069    0.0063    0.0060   -0.0001   -0.0102


   Root No.      73        74        75        76        77        78        79        80

                73 A      74 A      75 A      76 A      77 A      78 A      79 A      80 A   

                 9.362     9.533    10.076    10.699    10.948    11.496    11.688    12.121
  
  S   C    1    0.0068    0.0832   -0.0523   -0.0809   -0.0218    0.0263    0.0058    0.0092
  Px  C    1    0.1070    0.2356    0.0653   -0.1506    0.2057   -0.1200    0.0858    0.1836
  Py  C    1   -0.0542    0.1517   -0.2204   -0.1299   -0.1990    0.1478   -0.0447   -0.1053
  Pz  C    1    0.0021    0.0424   -0.0254   -0.0317   -0.0111    0.0113    0.0006   -0.0002
  S   C    2   -0.0750   -0.0870   -0.0706    0.0092   -0.0918    0.0559    0.0058   -0.0078
  Px  C    2    0.0884    0.2436    0.0011   -0.2055    0.1319   -0.0587    0.1029    0.1980
  Py  C    2   -0.2224   -0.2113   -0.1802   -0.0596   -0.1690    0.1139    0.0895    0.0953
  Pz  C    2   -0.0139   -0.0121   -0.0098   -0.0065   -0.0064    0.0047    0.0089    0.0117
  S   C    3   -0.0036   -0.0495   -0.0045    0.0550   -0.0523    0.0251   -0.0017   -0.0130
  Px  C    3   -0.2559   -0.1404   -0.2438   -0.0454   -0.0102   -0.1147   -0.1921   -0.1323
  Py  C    3   -0.0853   -0.0449   -0.1167   -0.1325   -0.1990    0.2125    0.2901    0.2966
  Pz  C    3   -0.0084   -0.0033   -0.0098   -0.0050   -0.0057    0.0027    0.0030    0.0044
  S   C    4   -0.0266   -0.0368   -0.0055    0.0636    0.0081   -0.0245    0.0091    0.0142
  Px  C    4    0.0381   -0.1617    0.2503   -0.0482    0.2171   -0.0567   -0.1477   -0.1784
  Py  C    4    0.0349   -0.1605    0.1321   -0.0114   -0.1255    0.2424    0.3262    0.2760
  Pz  C    4    0.0015   -0.0064    0.0069   -0.0014    0.0001    0.0049    0.0044    0.0030
  S   C    5   -0.0313   -0.0971    0.0703    0.0610    0.0797   -0.0602   -0.0103    0.0045
  Px  C    5    0.0529   -0.0700    0.1740   -0.1258    0.1501   -0.0111   -0.1506   -0.2016
  Py  C    5    0.1278    0.3127   -0.1297   -0.2093   -0.1294    0.1385   -0.0276   -0.0935
  Pz  C    5    0.0046    0.0123   -0.0045   -0.0073   -0.0033    0.0038   -0.0008   -0.0027
  S   C    6    0.0583    0.0554    0.0468   -0.0536    0.0509   -0.0096   -0.0064   -0.0072
  Px  C    6    0.2070    0.1624    0.1453   -0.1282    0.1241   -0.0197   -0.0114   -0.0104
  Py  C    6    0.0158    0.1693   -0.1857   -0.2104   -0.2253    0.2145   -0.0980   -0.2080
  Pz  C    6   -0.0045    0.0022   -0.0127   -0.0051   -0.0154    0.0114   -0.0049   -0.0106
  S   C    7    0.1107    0.0205    0.0663    0.0612   -0.0615    0.0614    0.0122    0.0081
  Px  C    7   -0.1640   -0.1511   -0.1663    0.0315   -0.0702   -0.0492   -0.2050   -0.1506
  Py  C    7    0.3269    0.0170    0.1113    0.1991   -0.1951    0.1410   -0.0891   -0.0310
  Pz  C    7    0.0077   -0.0029    0.0008    0.0071   -0.0082    0.0044   -0.0071   -0.0041
  S   C    8   -0.0430    0.0658   -0.0786    0.0789    0.0296   -0.0920   -0.0029   -0.0131
  Px  C    8   -0.1071    0.0004   -0.0179    0.2144    0.0835   -0.0927    0.2074    0.0950
  Py  C    8    0.0791   -0.2267    0.2009   -0.0978   -0.0276    0.1653    0.1126    0.1048
  Pz  C    8   -0.0055    0.0038   -0.0042    0.0089    0.0039   -0.0064    0.0059    0.0023
  S   C    9    0.0042    0.0354   -0.0243    0.0106    0.0005   -0.0197   -0.0187    0.0047
  Px  C    9   -0.1517    0.0623   -0.0754    0.2821    0.1291   -0.1716    0.1832    0.0773
  Py  C    9   -0.0650    0.0752    0.1327    0.1669    0.0222    0.3072   -0.3151    0.0646
  Pz  C    9   -0.0074    0.0052    0.0018    0.0165    0.0052    0.0047   -0.0044    0.0055
  S   C   10    0.0142    0.0362    0.0442   -0.0038   -0.0048    0.0296    0.0110   -0.0004
  Px  C   10    0.2764   -0.0065   -0.0672    0.1925   -0.2247   -0.1754    0.1787   -0.1085
  Py  C   10    0.1600   -0.0557    0.1143    0.1228   -0.1755    0.2868   -0.3023   -0.0456
  Pz  C   10    0.0148   -0.0014   -0.0007    0.0103   -0.0126   -0.0018    0.0013   -0.0052
  S   C   11   -0.1138    0.0363    0.0731   -0.0732    0.0637    0.0780   -0.0005   -0.0054
  Px  C   11    0.2003    0.0296   -0.0085    0.1581   -0.1617   -0.0996    0.1843   -0.1151
  Py  C   11   -0.2980    0.1465    0.2028   -0.1094    0.0686    0.1442    0.0983   -0.1095
  Pz  C   11   -0.0062    0.0099    0.0114    0.0020   -0.0056    0.0020    0.0135   -0.0109
  S   H   12   -0.2119    0.0650    0.1065   -0.0870    0.0801    0.1145   -0.0058   -0.0281
  S   C   13    0.0407    0.0047   -0.0700   -0.0807   -0.0114   -0.0807   -0.0049    0.0125
  Px  C   13    0.0196    0.1111   -0.1312    0.0533    0.0300   -0.0710   -0.1833    0.1645
  Py  C   13   -0.1222    0.0559    0.1107    0.2624    0.0459    0.1660   -0.1103    0.0364
  Pz  C   13   -0.0051    0.0093   -0.0028    0.0148    0.0046    0.0037   -0.0147    0.0102
  S   H   14    0.2166    0.0501    0.1042    0.0814   -0.0794    0.0956    0.0071    0.0304
  S   H   15    0.0068    0.1538   -0.0881   -0.1128   -0.0318    0.0346    0.0071    0.0075
  S   H   16   -0.1388   -0.1807   -0.0923    0.0273   -0.1323    0.0840    0.0238   -0.0017
  S   H   17   -0.0453   -0.1765    0.1196    0.0669    0.1140   -0.0781   -0.0314   -0.0119
  S   H   18    0.1264    0.0926    0.0927   -0.0704    0.0791   -0.0178   -0.0066   -0.0023
  S   H   19   -0.0696    0.1109   -0.1030    0.0935    0.0402   -0.1094   -0.0035   -0.0306
  S   H   20    0.0700    0.0014   -0.0925   -0.1090   -0.0223   -0.1129    0.0046    0.0312
  S   C   21    0.0600   -0.0722   -0.0790    0.0009    0.0978    0.0685   -0.0021    0.0135
  Px  C   21   -0.1287    0.0350    0.1598   -0.2086   -0.0796   -0.0752   -0.1325    0.2142
  Py  C   21    0.1587   -0.2454   -0.1392   -0.1165    0.2037    0.1273   -0.0589    0.1347
  Pz  C   21    0.0018    0.0084   -0.0024    0.0164   -0.0068   -0.0036    0.0103   -0.0176
  S   C   22   -0.0040    0.0554   -0.0349    0.0803    0.0168    0.0242    0.0032   -0.0046
  Px  C   22   -0.0054   -0.1600    0.1084   -0.1928   -0.0438   -0.0535   -0.0049    0.0035
  Py  C   22    0.1009   -0.1233   -0.1816   -0.0562    0.2789    0.2023   -0.1298    0.2612
  Pz  C   22   -0.0017    0.0146   -0.0055    0.0165   -0.0011    0.0010    0.0034   -0.0063
  S   C   23   -0.0619    0.0700    0.0704    0.0587   -0.0749   -0.0285    0.0050   -0.0037
  Px  C   23    0.0997   -0.1929    0.0253   -0.2437   -0.0743   -0.1428    0.0904   -0.2023
  Py  C   23    0.1280   -0.0783   -0.2010    0.0141    0.2164    0.1472   -0.0697    0.1384
  Pz  C   23   -0.0154    0.0241    0.0043    0.0247   -0.0003    0.0090   -0.0076    0.0171
  S   C   24    0.0235   -0.0753    0.0550   -0.0649   -0.0745   -0.0641    0.0039   -0.0166
  Px  C   24    0.1174   -0.2022   -0.0425   -0.2493    0.0263   -0.0751    0.0914   -0.2013
  Py  C   24   -0.0080    0.1226   -0.1688    0.0151    0.1936    0.1074    0.0617   -0.0947
  Pz  C   24   -0.0061    0.0088    0.0037    0.0154   -0.0014    0.0055   -0.0063    0.0124
  S   H   25    0.1176   -0.1299   -0.1161    0.0070    0.1263    0.0891    0.0130    0.0003
  S   H   26    0.0070    0.0973   -0.0689    0.1175    0.0296    0.0351    0.0042   -0.0018
  S   H   27   -0.0883    0.0938    0.0819    0.0654   -0.0738   -0.0240    0.0035   -0.0023
  S   H   28    0.0332   -0.1108    0.0726   -0.0716   -0.0916   -0.0774   -0.0093   -0.0037
  S   C   29    0.0035   -0.0418   -0.0117   -0.0526    0.0440    0.0220   -0.0145    0.0204
  Px  C   29   -0.1878    0.0943    0.2412   -0.1946   -0.1748   -0.1292   -0.1279    0.1950
  Py  C   29   -0.1519    0.1147    0.1365    0.0169    0.1307    0.2480    0.2655   -0.2825
  Pz  C   29   -0.0036    0.0061    0.0023    0.0076    0.0051    0.0108    0.0130   -0.0148
  S   C   30    0.0258   -0.0490   -0.0048   -0.0740   -0.0169   -0.0346    0.0023   -0.0102
  Px  C   30    0.0627    0.0950   -0.2101   -0.0288    0.0254   -0.1550   -0.1809    0.1595
  Py  C   30    0.0124    0.0159   -0.1369   -0.0252    0.2791    0.2261    0.2266   -0.2946
  Pz  C   30    0.0003    0.0053   -0.0060    0.0025    0.0010   -0.0039   -0.0056    0.0055


   Root No.      81        82        83        84

                81 A      82 A      83 A      84 A   

                12.605    12.717    13.169    14.503
  
  S   C    1    0.0458    0.0585   -0.0073    0.0409
  Px  C    1   -0.0071    0.3395   -0.1514    0.1098
  Py  C    1    0.1223   -0.0922    0.0903    0.0204
  Pz  C    1    0.0165    0.0136    0.0008    0.0105
  S   C    2    0.0190   -0.0062    0.0112    0.0257
  Px  C    2    0.0332    0.3888   -0.1542    0.1586
  Py  C    2    0.0563    0.1572   -0.0302    0.1155
  Pz  C    2    0.0024    0.0185   -0.0059    0.0095
  S   C    3   -0.0139   -0.0252   -0.0028    0.0168
  Px  C    3    0.1138    0.2784   -0.2089    0.2355
  Py  C    3    0.0044    0.2040    0.0089    0.0956
  Pz  C    3    0.0033    0.0120   -0.0047    0.0083
  S   C    4   -0.0164   -0.0045    0.0075    0.0204
  Px  C    4    0.3279    0.0125    0.1506    0.2012
  Py  C    4    0.0949    0.0428    0.1999    0.1111
  Pz  C    4    0.0064    0.0010    0.0060    0.0049
  S   C    5   -0.0019    0.0241   -0.0100    0.0241
  Px  C    5    0.3467   -0.0043    0.1491    0.1734
  Py  C    5    0.1764   -0.0615    0.1106    0.0459
  Pz  C    5    0.0064   -0.0009    0.0034    0.0024
  S   C    6    0.0609    0.0352    0.0142    0.0383
  Px  C    6    0.1252    0.0793    0.0262    0.0770
  Py  C    6    0.2705   -0.1621    0.1890    0.0583
  Pz  C    6    0.0091   -0.0117    0.0089    0.0002
  S   C    7   -0.0486   -0.0446    0.0016    0.0118
  Px  C    7    0.0731    0.2319   -0.2137    0.2554
  Py  C    7   -0.0853    0.0517   -0.0948    0.1519
  Pz  C    7   -0.0014    0.0067   -0.0076    0.0100
  S   C    8   -0.0367   -0.0374   -0.0065    0.0124
  Px  C    8    0.1858   -0.0652    0.2382    0.2455
  Py  C    8    0.1535    0.0614    0.1439    0.1082
  Pz  C    8    0.0052   -0.0028    0.0072    0.0078
  S   C    9   -0.0580   -0.0174    0.0038    0.0095
  Px  C    9    0.1253   -0.0944    0.2292    0.2591
  Py  C    9   -0.1873    0.1455    0.1523    0.1182
  Pz  C    9   -0.0037    0.0011    0.0144    0.0143
  S   C   10   -0.0410   -0.0520   -0.0103    0.0068
  Px  C   10    0.0559   -0.1071   -0.2269    0.3004
  Py  C   10   -0.1331    0.1923   -0.0994    0.1375
  Pz  C   10   -0.0008   -0.0015   -0.0116    0.0156
  S   C   11   -0.0501   -0.0366   -0.0061   -0.0110
  Px  C   11    0.0052   -0.1602   -0.2310    0.2933
  Py  C   11   -0.1214   -0.1415   -0.1494    0.1484
  Pz  C   11   -0.0062   -0.0141   -0.0174    0.0209
  S   H   12   -0.0580   -0.0126   -0.0102   -0.0077
  S   C   13   -0.0431   -0.0333    0.0075   -0.0053
  Px  C   13   -0.2048   -0.0306    0.2797    0.2366
  Py  C   13   -0.0570    0.0733    0.1402    0.1434
  Pz  C   13   -0.0135    0.0012    0.0205    0.0187
  S   H   14   -0.0573   -0.0203    0.0102    0.0058
  S   H   15    0.0554    0.0579   -0.0016    0.0393
  S   H   16    0.0141   -0.0355    0.0315    0.0076
  S   H   17    0.0061    0.0285   -0.0166    0.0200
  S   H   18    0.0620    0.0484    0.0078    0.0381
  S   H   19   -0.0176   -0.0423   -0.0108    0.0077
  S   H   20   -0.0146   -0.0419    0.0064   -0.0061
  S   C   21    0.0230   -0.0066   -0.0172   -0.0274
  Px  C   21   -0.0715   -0.2848   -0.1320    0.1971
  Py  C   21    0.0130   -0.1832   -0.1320    0.0678
  Pz  C   21    0.0032    0.0225    0.0121   -0.0122
  S   C   22    0.0448    0.0404    0.0056   -0.0403
  Px  C   22   -0.0988   -0.0774   -0.0037    0.0787
  Py  C   22    0.0804   -0.2796   -0.2193    0.0858
  Pz  C   22    0.0058    0.0126    0.0054   -0.0083
  S   C   23    0.0576    0.0377   -0.0096   -0.0422
  Px  C   23   -0.2809    0.0785    0.1995    0.0890
  Py  C   23    0.0547   -0.1321   -0.1070    0.0321
  Pz  C   23    0.0269   -0.0043   -0.0169   -0.0096
  S   C   24   -0.0047    0.0233    0.0145   -0.0254
  Px  C   24   -0.3259    0.0423    0.2009    0.1358
  Py  C   24   -0.1723   -0.0288    0.0665    0.1199
  Pz  C   24    0.0190   -0.0020   -0.0109   -0.0073
  S   H   25    0.0232   -0.0104   -0.0287   -0.0168
  S   H   26    0.0576    0.0411   -0.0019   -0.0409
  S   H   27    0.0529    0.0351   -0.0071   -0.0354
  S   H   28   -0.0068    0.0230    0.0252   -0.0153
  S   C   29   -0.0042   -0.0087    0.0092   -0.0286
  Px  C   29   -0.0827   -0.2731   -0.1281    0.2289
  Py  C   29   -0.1078   -0.0992   -0.2089    0.1549
  Pz  C   29   -0.0023   -0.0000   -0.0080    0.0058
  S   C   30   -0.0109   -0.0021   -0.0098   -0.0260
  Px  C   30   -0.2383   -0.0511    0.2791    0.2164
  Py  C   30   -0.2136    0.0126    0.0198    0.1089
  Pz  C   30   -0.0064   -0.0012    0.0094    0.0079


              NET ATOMIC CHARGES AND DIPOLE CONTRIBUTIONS

  ATOM NO.   TYPE          CHARGE      No. of ELECS.   s-Pop       p-Pop       
    1          C          -0.025084        4.0251     1.09571     2.92938
    2          C          -0.024289        4.0243     1.08736     2.93693
    3          C           0.010747        3.9893     1.07165     2.91760
    4          C           0.010815        3.9892     1.07345     2.91574
    5          C          -0.028675        4.0287     1.09526     2.93341
    6          C          -0.032104        4.0321     1.10310     2.92900
    7          C          -0.039878        4.0399     1.10531     2.93457
    8          C          -0.036534        4.0365     1.10955     2.92698
    9          C           0.007986        3.9920     1.07560     2.91641
   10          C           0.012020        3.9880     1.06921     2.91877
   11          C          -0.029024        4.0290     1.08100     2.94802
   12          H           0.021413        0.9786     0.97859
   13          C          -0.032787        4.0328     1.10168     2.93111
   14          H           0.024805        0.9752     0.97519
   15          H           0.029688        0.9703     0.97031
   16          H           0.020261        0.9797     0.97974
   17          H           0.025940        0.9741     0.97406
   18          H           0.024997        0.9750     0.97500
   19          H           0.031494        0.9685     0.96851
   20          H           0.021974        0.9780     0.97803
   21          C          -0.029783        4.0298     1.09620     2.93358
   22          C          -0.025947        4.0259     1.09470     2.93125
   23          C          -0.021193        4.0212     1.10567     2.91553
   24          C          -0.024712        4.0247     1.10912     2.91559
   25          H           0.025475        0.9745     0.97453
   26          H           0.020213        0.9798     0.97979
   27          H           0.024140        0.9759     0.97586
   28          H           0.015916        0.9841     0.98408
   29          C           0.016361        3.9836     1.06335     2.92029
   30          C           0.005765        3.9942     1.07490     2.91933
 DIPOLE           X         Y         Z       TOTAL
 POINT-CHG.    -0.110    -0.067    -0.082     0.153
 HYBRID         0.031     0.112    -0.417     0.433
 SUM           -0.079     0.045    -0.498     0.507


          ATOMIC ORBITAL ELECTRON POPULATIONS

     Atom    s        px        py        pz   
    1  C   1.09571   0.97653   0.95783   0.99501
    2  C   1.08736   0.96316   0.96810   1.00566
    3  C   1.07165   0.95984   0.97268   0.98508
    4  C   1.07345   0.96521   0.97041   0.98012
    5  C   1.09526   0.96748   0.96013   1.00579
    6  C   1.10310   0.94233   0.98915   0.99752
    7  C   1.10531   0.95792   0.95255   1.02410
    8  C   1.10955   0.96548   0.94809   1.01342
    9  C   1.07560   0.96584   0.97014   0.98044
   10  C   1.06921   0.96643   0.96740   0.98494
   11  C   1.08100   0.96417   0.95981   1.02404
   12  H   0.97859
   13  C   1.10168   0.96705   0.95393   1.01013
   14  H   0.97519
   15  H   0.97031
   16  H   0.97974
   17  H   0.97406
   18  H   0.97500
   19  H   0.96851
   20  H   0.97803
   21  C   1.09620   0.97070   0.95494   1.00795
   22  C   1.09470   0.94710   0.98607   0.99808
   23  C   1.10567   0.97738   0.94528   0.99286
   24  C   1.10912   0.96643   0.94405   1.00512
   25  H   0.97453
   26  H   0.97979
   27  H   0.97586
   28  H   0.98408
   29  C   1.06335   0.96870   0.97516   0.97643
   30  C   1.07490   0.96863   0.96350   0.98720

 **********************
 *                    *
 * JOB ENDED NORMALLY *
 *                    *
 **********************



 TOTAL JOB TIME:             1.25 SECONDS

 == MOPAC DONE ==


          MOPAC Job: "./tetraceneTraj/tetracene_932.mop" ended normally on Feb 15, 2023, at 11:28.

rm: cannot remove ./tetraceneTraj/tetracene_932.cim: No such file or directory
rm: cannot remove ./tetraceneTraj/tetracene_932.end: No such file or directory
rm: cannot remove ./tetraceneTraj/tetracene_932.log: No such file or directory
rm: cannot remove ./tetraceneTraj/tetracene_932.temp: No such file or directory
rm: cannot remove ./tetraceneTraj/tetracene_932.ple: No such file or directory
rm: cannot remove ./tetraceneTraj/tetracene_932.sts: No such file or directory
