 *******************************************************************************
 ** Site#:    0         For non-commercial use only    Version 20.173L 64BITS **
 *******************************************************************************
 ** Cite this program as: MOPAC2016, Version: 20.173L, James J. P. Stewart,   **
 ** Stewart Computational Chemistry, web-site: HTTP://OpenMOPAC.net.          **
 *******************************************************************************
 **                                                                           **
 **                                MOPAC2016                                  **
 **                                                                           **
 *******************************************************************************

                              INDO CALCULATION RESULTS

 *******************************************************************************
 *  CALCULATION DONE:                                Wed Feb 15 11:34:13 2023  *
 *  INDO       - The INDO Hamiltonian to be used
 *
 *
 *
 *                 CHARGE ON SYSTEM = 0
 *
 *
 *
 *  C.I.=(N,M) - 3 DOUBLY FILLED LEVELS USED IN A C.I. INVOLVING 6 M.O.'S
 *  T=         - A TIME OF 172800.0 SECONDS REQUESTED
 *  DUMP=N     - RESTART FILE WRITTEN EVERY 7200.0 SECONDS REQUESTED
 *  RELSCF     - DEFAULT SCF CRITERION MULTIPLIED BY 0.0000
 *              (DEFAULT SCF CRITERION = 0.00010)
 *  ALLVEC     - PRINT ALL EIGENVECTORS
 **********
 *  WARNING: Specified print options may not behave as expected with INDO
 **********
 *******************************************************************************
INDO C.I.=(6,3) AllVEC CHARGE=0 RELSCF=0.000001


   ATOM   CHEMICAL          X               Y               Z
  NUMBER   SYMBOL      (ANGSTROMS)     (ANGSTROMS)     (ANGSTROMS)
 
     1       C         18.50692803  *  19.52842187  *  22.33674097  *
     2       C         19.86996277  *  19.44594837  *  22.32479840  *
     3       C         20.68670735  *  20.64604422  *  22.37367489  *
     4       C         19.97644406  *  21.95286419  *  22.48475365  *
     5       C         18.55436909  *  21.93109495  *  22.37058516  *
     6       C         17.80442962  *  20.78078208  *  22.31250419  *
     7       C         22.08995073  *  20.58069736  *  22.51296990  *
     8       C         20.73165550  *  23.16160944  *  22.62261958  *
     9       C         22.17434929  *  23.15684326  *  22.59201725  *
    10       C         22.87527887  *  21.81019690  *  22.64278116  *
    11       C         24.28876940  *  21.81941828  *  22.59584666  *
    12       H         24.83242481  *  20.87693822  *  22.52233863  *
    13       C         22.89991446  *  24.39161684  *  22.53877856  *
    14       H         22.62969928  *  19.65526752  *  22.52546086  *
    15       H         17.96061461  *  18.59030987  *  22.34165876  *
    16       H         20.40367270  *  18.49146427  *  22.34580237  *
    17       H         17.98978621  *  22.86119708  *  22.32739471  *
    18       H         16.70212284  *  20.73022625  *  22.27633870  *
    19       H         20.26040031  *  24.16651175  *  22.64692520  *
    20       H         22.37800187  *  25.36995962  *  22.48789894  *
    21       C         26.52281447  *  23.05384577  *  22.48772161  *
    22       C         27.19696808  *  24.29613398  *  22.46823797  *
    23       C         26.41578496  *  25.55754462  *  22.61956612  *
    24       C         25.03846670  *  25.53665478  *  22.66110349  *
    25       H         27.09696408  *  22.09007374  *  22.44351624  *
    26       H         28.30183622  *  24.31567868  *  22.42249952  *
    27       H         26.97311675  *  26.47380407  *  22.59243767  *
    28       H         24.45646700  *  26.44580696  *  22.77366519  *
    29       C         25.05474800  *  23.01225880  *  22.55004407  *
    30       C         24.31370962  *  24.33237681  *  22.52995229  *
 


          CARTESIAN COORDINATES 

    NO.       ATOM           X           Y           Z

     1         C         18.5069     19.5284     22.3367
     2         C         19.8700     19.4459     22.3248
     3         C         20.6867     20.6460     22.3737
     4         C         19.9764     21.9529     22.4848
     5         C         18.5544     21.9311     22.3706
     6         C         17.8044     20.7808     22.3125
     7         C         22.0900     20.5807     22.5130
     8         C         20.7317     23.1616     22.6226
     9         C         22.1743     23.1568     22.5920
    10         C         22.8753     21.8102     22.6428
    11         C         24.2888     21.8194     22.5958
    12         H         24.8324     20.8769     22.5223
    13         C         22.8999     24.3916     22.5388
    14         H         22.6297     19.6553     22.5255
    15         H         17.9606     18.5903     22.3417
    16         H         20.4037     18.4915     22.3458
    17         H         17.9898     22.8612     22.3274
    18         H         16.7021     20.7302     22.2763
    19         H         20.2604     24.1665     22.6469
    20         H         22.3780     25.3700     22.4879
    21         C         26.5228     23.0538     22.4877
    22         C         27.1970     24.2961     22.4682
    23         C         26.4158     25.5575     22.6196
    24         C         25.0385     25.5367     22.6611
    25         H         27.0970     22.0901     22.4435
    26         H         28.3018     24.3157     22.4225
    27         H         26.9731     26.4738     22.5924
    28         H         24.4565     26.4458     22.7737
    29         C         25.0547     23.0123     22.5500
    30         C         24.3137     24.3324     22.5300

           Empirical Formula: C18 H12  =    30 atoms



      MOLECULAR POINT GROUP   :   C1  


      RHF CALCULATION, NO. OF DOUBLY OCCUPIED LEVELS = 42

 WARNING: INDO only performs single-point calculations
  SCF CRITERION =    0.1000E-09

 Summary of symmetry occupancy in each shell:

 SHELL     
    1   42
    v   42
 TOTAL  84




    ROOT NO.    1           2           3           4           5           6

           -44.18235   -42.89862   -40.11779   -36.59050   -35.77913   -34.27775
  
  
  S  C   1   0.18488    -0.23737    -0.23724    -0.23635     0.07495     0.12701
 PX  C   1   0.04612    -0.05235    -0.03332     0.00362     0.04487     0.09469
 PY  C   1   0.06317    -0.07807    -0.06965    -0.05605    -0.02182    -0.05832
 PZ  C   1   0.00063    -0.00036     0.00071     0.00217    -0.00002    -0.00012
  
  S  C   2   0.21083    -0.23993    -0.17071    -0.07298     0.17100     0.30666
 PX  C   2  -0.01660     0.03904     0.07594     0.11694     0.02987     0.04037
 PY  C   2   0.07952    -0.08389    -0.04338     0.00842     0.01127     0.01154
 PZ  C   2   0.00545    -0.00510    -0.00106     0.00346     0.00385     0.00623
  
  S  C   3   0.30895    -0.24999     0.00877     0.21652     0.14593     0.22217
 PX  C   3  -0.02287     0.07553     0.13446     0.12754     0.06161     0.05399
 PY  C   3   0.04440    -0.00660     0.06689     0.08477    -0.09433    -0.14374
 PZ  C   3   0.01215    -0.00603     0.01019     0.01930     0.00343     0.00390
  
  S  C   4   0.30683    -0.24799     0.00416     0.18885    -0.17732    -0.21847
 PX  C   4   0.02482     0.03652     0.13194     0.14901     0.02350     0.08574
 PY  C   4  -0.04626     0.06928     0.07247     0.04144    -0.10511    -0.11782
 PZ  C   4  -0.00529     0.00882     0.01102     0.00860    -0.00257     0.00015
  
  S  C   5   0.21254    -0.24216    -0.17680    -0.10212    -0.16075    -0.30328
 PX  C   5   0.05606    -0.04639     0.00775     0.07005    -0.03511    -0.02572
 PY  C   5  -0.05855     0.07954     0.08626     0.08751    -0.02929    -0.02420
 PZ  C   5   0.00246    -0.00161     0.00185     0.00589    -0.00422    -0.00468
  
  S  C   6   0.17981    -0.23155    -0.23408    -0.24376    -0.04571    -0.13621
 PX  C   6   0.07945    -0.09629    -0.08034    -0.05142    -0.00542    -0.01285
 PY  C   6   0.00157     0.00158     0.01095     0.02626    -0.04999    -0.10116
 PZ  C   6   0.00409    -0.00493    -0.00403    -0.00253    -0.00178    -0.00388
  
  S  C   7   0.23142    -0.08007     0.19605     0.25031     0.26852     0.20487
 PX  C   7  -0.04212     0.06504     0.02365    -0.08861     0.02535    -0.07681
 PY  C   7   0.06630     0.00246     0.08966     0.05498    -0.00201    -0.04653
 PZ  C   7  -0.00094     0.00299     0.00349    -0.00248    -0.00078    -0.00772
  
  S  C   8   0.23037    -0.07032     0.19569     0.21022    -0.30369    -0.20051
 PX  C   8   0.03656     0.03875     0.08997    -0.00144    -0.01924     0.06671
 PY  C   8  -0.06912     0.05249    -0.03010    -0.10355    -0.01063     0.03961
 PZ  C   8  -0.00974     0.00565    -0.00488    -0.01007     0.00956     0.00973
  
  S  C   9   0.29275     0.08479     0.31506    -0.02726    -0.22029    -0.02321
 PX  C   9   0.01699     0.08354     0.00191    -0.18483     0.08041     0.06175
 PY  C   9  -0.04025     0.03436    -0.05140    -0.10487    -0.12476     0.03220
 PZ  C   9  -0.00183     0.00002    -0.00078     0.00057     0.00117    -0.00070
  
  S  C  10   0.28971     0.07554     0.32096    -0.00282     0.21858    -0.00178
 PX  C  10  -0.02475     0.07123    -0.03325    -0.18602     0.09086    -0.05323
 PY  C  10   0.03891     0.05380     0.03163    -0.10881    -0.11065    -0.04373
 PZ  C  10  -0.01259    -0.00137    -0.01363    -0.00470    -0.01108    -0.00233
  
  S  C  11   0.21012     0.17275     0.15801    -0.22585     0.33264    -0.16540
 PX  C  11  -0.04448     0.00468    -0.09606     0.00818    -0.00553    -0.06741
 PY  C  11   0.05750     0.07380     0.00659    -0.09820    -0.00370    -0.03864
 PZ  C  11  -0.00278    -0.00222    -0.00092     0.00131    -0.00533     0.00387
  
  S  H  12   0.06586     0.05237     0.04880    -0.06148     0.16544    -0.08098
  
  S  C  13   0.21476     0.18968     0.12840    -0.23733    -0.30725     0.17482
 PX  C  13   0.03148     0.07391    -0.05191    -0.07583     0.01319     0.08388
 PY  C  13  -0.06591    -0.03261    -0.08868     0.06530    -0.00351     0.04863
 PZ  C  13   0.00247     0.00242     0.00162    -0.00226    -0.00283     0.00116
  
  S  H  14   0.07450    -0.02363     0.06259     0.07420     0.14406     0.10265
  
  S  H  15   0.05006    -0.06726    -0.07551    -0.09051     0.03417     0.06296
  
  S  H  16   0.06337    -0.06931    -0.04344    -0.00850     0.08819     0.15618
  
  S  H  17   0.06294    -0.07013    -0.04908    -0.02886    -0.08346    -0.15241
  
  S  H  18   0.04621    -0.06246    -0.07154    -0.09093    -0.01797    -0.05666
  
  S  H  19   0.07143    -0.01730     0.05985     0.05063    -0.15076    -0.09156
  
  S  H  20   0.06681     0.05904     0.03359    -0.06438    -0.15657     0.08701
  
  S  C  21   0.12723     0.21664    -0.20972     0.12185     0.20086    -0.27411
 PX  C  21  -0.04248    -0.05972     0.01829     0.04812    -0.04284     0.02828
 PY  C  21   0.03105     0.06351    -0.09287     0.09350    -0.01791     0.00191
 PZ  C  21   0.00220     0.00363    -0.00283     0.00023     0.00125    -0.00073
  
  S  C  22   0.10252     0.19550    -0.25628     0.25247     0.08361    -0.14952
 PX  C  22  -0.04681    -0.08469     0.09414    -0.06190    -0.01165     0.01457
 PY  C  22  -0.00369    -0.00408    -0.00499     0.02040    -0.05198     0.07866
 PZ  C  22   0.00379     0.00724    -0.00938     0.00870     0.00013    -0.00045
  
  S  C  23   0.11162     0.21229    -0.27613     0.26102    -0.05419     0.07110
 PX  C  23  -0.03145    -0.05433     0.05095    -0.01138     0.05297    -0.08335
 PY  C  23  -0.03779    -0.06907     0.07949    -0.05926    -0.02715     0.04719
 PZ  C  23  -0.00262    -0.00515     0.00710    -0.00734    -0.00213     0.00404
  
  S  C  24   0.15222     0.25863    -0.24776     0.11791    -0.19137     0.25718
 PX  C  24   0.00048     0.01878    -0.07236     0.11977     0.05406    -0.05887
 PY  C  24  -0.05590    -0.08787     0.06160     0.00382     0.01318    -0.01227
 PZ  C  24  -0.00529    -0.00923     0.00919    -0.00425     0.00346    -0.00395
  
  S  H  25   0.03637     0.06002    -0.05360     0.02855     0.09419    -0.12468
  
  S  H  26   0.02548     0.05082    -0.07488     0.08926     0.03331    -0.06335
  
  S  H  27   0.02995     0.05955    -0.08687     0.09870    -0.02424     0.03343
  
  S  H  28   0.05039     0.08284    -0.07243     0.02387    -0.10656     0.13909
  
  S  C  29   0.23132     0.30199    -0.07483    -0.15851     0.21727    -0.20176
 PX  C  29  -0.04348    -0.01341    -0.11700     0.15609     0.03082    -0.07595
 PY  C  29   0.02460     0.05899    -0.09150     0.06339    -0.11242     0.09180
 PZ  C  29   0.00024    -0.00034     0.00261    -0.00357    -0.00197     0.00364
  
  S  C  30   0.24836     0.33064    -0.10072    -0.16715    -0.16949     0.19536
 PX  C  30  -0.00428     0.03954    -0.13696     0.14333     0.08451    -0.06149
 PY  C  30  -0.03640    -0.01973    -0.07143     0.09599    -0.11566     0.13445
 PZ  C  30   0.00612     0.00902    -0.00473    -0.00224    -0.00728     0.00978




    ROOT NO.    7           8           9          10          11          12

           -31.89775   -31.19302   -28.86313   -28.16198   -26.84612   -26.09381
  
  
  S  C   1   0.18954     0.26067    -0.16086    -0.24382    -0.02724     0.18094
 PX  C   1   0.09958    -0.10123    -0.11965     0.15589     0.04570     0.06803
 PY  C   1  -0.07905     0.01866     0.10609     0.02611    -0.07755    -0.10458
 PZ  C   1  -0.00132    -0.00442     0.00090     0.00439     0.00004    -0.00076
  
  S  C   2   0.27227    -0.06440    -0.17280     0.12020     0.12911     0.01279
 PX  C   2  -0.04636    -0.14209     0.12812     0.11363     0.06287    -0.20467
 PY  C   2  -0.02578    -0.08177     0.05313     0.09564    -0.09300    -0.07490
 PZ  C   2   0.00214    -0.00614     0.00181     0.00403     0.00003    -0.00417
  
  S  C   3   0.04470    -0.24682     0.09486     0.11477    -0.10050    -0.16833
 PX  C   3  -0.06040     0.05668     0.15459    -0.14969     0.05830    -0.09346
 PY  C   3  -0.08585     0.00300    -0.02712    -0.09647    -0.18823     0.13090
 PZ  C   3  -0.00501    -0.00469     0.00906    -0.01217    -0.01159    -0.00141
  
  S  C   4  -0.08805    -0.24895    -0.14994     0.07203    -0.08285     0.19994
 PX  C   4   0.10451     0.02875    -0.03580    -0.17002    -0.12381    -0.04523
 PY  C   4   0.00813     0.04240    -0.10065    -0.10833     0.16564     0.08018
 PZ  C   4   0.00733     0.00806    -0.00812    -0.02078     0.00647     0.00233
  
  S  C   5  -0.27626    -0.05670     0.14360     0.15399     0.12464    -0.03553
 PX  C   5   0.02654    -0.15215    -0.16217     0.09793    -0.03537     0.20463
 PY  C   5   0.00772    -0.07237    -0.07509     0.01588     0.11183     0.08300
 PZ  C   5   0.00008    -0.01043    -0.01208     0.00440     0.00253     0.01652
  
  S  C   6  -0.14649     0.26869     0.23419    -0.19492    -0.03685    -0.20006
 PX  C   6  -0.00435    -0.03216    -0.03568     0.09124    -0.03351     0.06629
 PY  C   6  -0.13094    -0.09016     0.11418     0.15262     0.07575    -0.11119
 PZ  C   6  -0.00406    -0.00146     0.00175     0.00409    -0.00024     0.00116
  
  S  C   7  -0.17108     0.03629     0.26652    -0.11106     0.15208    -0.03994
 PX  C   7  -0.10207     0.14939    -0.04387    -0.02131     0.11447     0.19674
 PY  C   7  -0.05377     0.08723    -0.02169    -0.08452    -0.15625     0.11793
 PZ  C   7  -0.00796     0.01425    -0.00496    -0.00783     0.00023     0.02196
  
  S  C   8   0.17628     0.02194    -0.21527    -0.17012     0.17739    -0.01502
 PX  C   8   0.12474     0.14781     0.06362    -0.05097    -0.06988    -0.17801
 PY  C   8   0.07224     0.06936     0.04115     0.04820     0.17870    -0.12210
 PZ  C   8   0.00113     0.00803     0.00726     0.00149     0.00101    -0.00922
  
  S  C   9   0.23725     0.23159     0.01005     0.03241    -0.08802    -0.16622
 PX  C   9  -0.07455    -0.00673     0.08429     0.19672    -0.12219     0.06923
 PY  C   9   0.12661    -0.03854     0.06286     0.10200     0.21616    -0.11036
 PZ  C   9   0.00005     0.00407    -0.00424    -0.00391    -0.00300    -0.00151
  
  S  C  10  -0.19954     0.26069     0.00123     0.00970    -0.08956     0.19371
 PX  C  10  -0.06779    -0.01704    -0.12302     0.15919     0.12863     0.05991
 PY  C  10   0.12940     0.00548    -0.07709     0.10344    -0.20982    -0.09576
 PZ  C  10   0.00996    -0.00686    -0.00635     0.00333     0.00226    -0.00542
  
  S  C  11  -0.15648     0.00906    -0.24379     0.08691     0.18945     0.00861
 PX  C  11   0.10492    -0.16019    -0.04430    -0.09655     0.08151    -0.19157
 PY  C  11   0.06463    -0.08398    -0.03913     0.03829    -0.17875    -0.11983
 PZ  C  11  -0.00110     0.00477     0.00109     0.00413    -0.00529     0.00631
  
  S  H  12  -0.07727    -0.00032    -0.10813    -0.00565     0.22278     0.00991
  
  S  C  13   0.15284    -0.01359     0.22913     0.15112     0.16446     0.02937
 PX  C  13  -0.13019    -0.13618     0.04722    -0.01857    -0.11864     0.18693
 PY  C  13  -0.08232    -0.07431     0.02650    -0.10459     0.14674     0.11789
 PZ  C  13   0.00128     0.00262    -0.00222     0.00016    -0.00191    -0.00349
  
  S  H  14  -0.08730     0.01751     0.12773    -0.02004     0.20415    -0.02193
  
  S  H  15   0.10301     0.14793    -0.09867    -0.18141     0.01244     0.12674
  
  S  H  16   0.13077    -0.03005    -0.07221     0.04355     0.13893    -0.01596
  
  S  H  17  -0.13736    -0.01861     0.08074     0.05498     0.13658    -0.04066
  
  S  H  18  -0.06611     0.15085     0.13371    -0.15360    -0.00118    -0.13819
  
  S  H  19   0.09204     0.01006    -0.09364    -0.04439     0.21399    -0.02960
  
  S  H  20   0.06593    -0.00718     0.10827     0.02405     0.20424     0.02458
  
  S  C  21   0.27950    -0.08570     0.20302    -0.13469     0.11659     0.06374
 PX  C  21   0.02881     0.12271     0.11840     0.13938     0.03748     0.20481
 PY  C  21   0.03145     0.07332     0.07636     0.05647    -0.10368     0.09089
 PZ  C  21  -0.00184    -0.00259    -0.00624    -0.00362    -0.00259    -0.00922
  
  S  C  22   0.19607     0.22254     0.19694     0.25942    -0.01348     0.21415
 PX  C  22  -0.00005     0.01350     0.02658     0.08198     0.04820     0.08019
 PY  C  22  -0.11157     0.09858    -0.15134     0.13084    -0.05260    -0.12500
 PZ  C  22  -0.00098     0.00809    -0.00486     0.00652    -0.00454    -0.00696
  
  S  C  23  -0.12913     0.29013    -0.22323     0.23844    -0.00930    -0.19168
 PX  C  23   0.11195     0.06026     0.09302     0.17451    -0.02502     0.06736
 PY  C  23  -0.06836    -0.00224    -0.09478     0.01011     0.07139    -0.08737
 PZ  C  23  -0.00570    -0.00775    -0.00592    -0.01182     0.00552    -0.00592
  
  S  C  24  -0.27462     0.00387    -0.15900    -0.15116     0.10409    -0.01096
 PX  C  24  -0.00614     0.14832    -0.14664     0.09903    -0.06441    -0.20189
 PY  C  24  -0.01370     0.08494    -0.07862     0.08572     0.10159    -0.07416
 PZ  C  24   0.00210     0.00296    -0.00411     0.00503     0.00573    -0.00514
  
  S  H  25   0.12552    -0.04131     0.09345    -0.05362     0.12800     0.04837
  
  S  H  26   0.09418     0.11678     0.11139     0.17748     0.02089     0.15570
  
  S  H  27  -0.06455     0.16107    -0.13200     0.17901     0.02351    -0.12321
  
  S  H  28  -0.13708    -0.00282    -0.06741    -0.06387     0.13385     0.02420
  
  S  C  29   0.07640    -0.25368    -0.10549    -0.13584    -0.08501    -0.21357
 PX  C  29   0.10336    -0.01911     0.08155    -0.15999     0.11496    -0.02879
 PY  C  29   0.00598    -0.02059     0.11882    -0.06059    -0.18305     0.06994
 PZ  C  29  -0.00595     0.00235    -0.00681     0.00536    -0.00135     0.00059
  
  S  C  30  -0.08903    -0.22688     0.10817    -0.10501    -0.12227     0.13782
 PX  C  30  -0.04911    -0.01559    -0.11964    -0.16788    -0.07795    -0.09773
 PY  C  30  -0.10323     0.01790     0.02712    -0.10203     0.17917     0.13344
 PZ  C  30  -0.00915    -0.00508    -0.00245    -0.00824    -0.00035     0.00547




    ROOT NO.   13          14          15          16          17          18

           -25.20908   -23.81335   -22.84584   -21.67116   -20.50390   -19.32296
  
  
  S  C   1   0.00840     0.12021    -0.02026    -0.15882    -0.03532     0.01938
 PX  C   1   0.05152    -0.23475     0.00365    -0.00160     0.20333     0.16464
 PY  C   1  -0.17090    -0.02786    -0.18995     0.13516    -0.12279     0.17224
 PZ  C   1  -0.00047    -0.00189    -0.00035    -0.00218     0.00040    -0.00002
  
  S  C   2   0.17132    -0.16073     0.11969     0.11387     0.09892     0.00916
 PX  C   2   0.04886     0.04186     0.07081     0.18884    -0.13441    -0.15132
 PY  C   2  -0.19671    -0.02302    -0.19441     0.08329    -0.12581     0.07367
 PZ  C   2  -0.00080     0.00147     0.00052     0.00045    -0.00174    -0.00083
  
  S  C   3  -0.14721     0.09473     0.00328     0.10208    -0.03846    -0.14806
 PX  C   3   0.12852     0.16180     0.13824    -0.10276    -0.00247     0.00235
 PY  C   3  -0.17632     0.07440    -0.01771    -0.13569     0.14208    -0.07589
 PZ  C   3  -0.00752     0.01642     0.00692    -0.01241     0.00954     0.00027
  
  S  C   4  -0.07676     0.12286    -0.01652    -0.09303    -0.06765    -0.14876
 PX  C   4  -0.10119     0.13636     0.08187     0.15879     0.11953    -0.06006
 PY  C   4   0.24348     0.10515     0.12071     0.02227    -0.09626     0.04183
 PZ  C   4   0.01559     0.01742     0.01475     0.01596    -0.00568     0.01321
  
  S  C   5   0.17535    -0.15437     0.10895    -0.12263     0.10756     0.02131
 PX  C   5  -0.07651     0.03875    -0.15474    -0.15129    -0.20709    -0.03516
 PY  C   5   0.19168     0.05845     0.15950    -0.09603    -0.02305    -0.16457
 PZ  C   5   0.00273     0.00850    -0.00636    -0.01180    -0.02235    -0.00179
  
  S  C   6  -0.04918     0.10965     0.01240     0.17063    -0.04474    -0.00944
 PX  C   6  -0.08443    -0.14664    -0.16300    -0.10696     0.02706     0.25962
 PY  C   6   0.10634    -0.19431     0.12195     0.03761     0.24459     0.04768
 PZ  C   6  -0.00168    -0.00456    -0.00518    -0.00578    -0.00146     0.00971
  
  S  C   7   0.11606     0.10494    -0.09260    -0.20569    -0.06651     0.15317
 PX  C   7   0.04904    -0.14176    -0.18473    -0.08630     0.00589     0.14203
 PY  C   7  -0.09741    -0.09096     0.05583    -0.03363     0.22429    -0.03707
 PZ  C   7  -0.00161    -0.01807    -0.01395    -0.01046     0.01465     0.02029
  
  S  C   8   0.11336     0.09363    -0.06893     0.21398    -0.06986     0.15945
 PX  C   8  -0.11336    -0.18284    -0.03450     0.05112     0.19721     0.07311
 PY  C   8   0.04875    -0.08131    -0.17697     0.05475    -0.09499     0.12340
 PZ  C   8   0.00023    -0.01221    -0.00505     0.01046    -0.00251     0.02253
  
  S  C   9  -0.01723    -0.23254     0.04494    -0.01404     0.00049     0.00176
 PX  C   9   0.02923    -0.01098     0.10561    -0.17117    -0.17365    -0.15029
 PY  C   9  -0.01647     0.07873    -0.21853    -0.09439    -0.08871    -0.09888
 PZ  C   9   0.00235    -0.01279     0.00495     0.01740    -0.00108     0.01986
  
  S  C  10   0.03155    -0.22913     0.03164    -0.00158     0.00291    -0.01469
 PX  C  10   0.01177     0.03742    -0.10991     0.18105    -0.17232    -0.15664
 PY  C  10  -0.00146    -0.06966     0.22463     0.09344    -0.09355    -0.05632
 PZ  C  10  -0.00004    -0.00308    -0.00013     0.01372    -0.00554     0.00336
  
  S  C  11  -0.13228     0.09074    -0.04695     0.21149     0.06827    -0.13496
 PX  C  11  -0.12046     0.15885     0.05492    -0.06260     0.19568     0.09254
 PY  C  11   0.06383     0.07690     0.16161    -0.05047    -0.10981     0.15439
 PZ  C  11   0.00597    -0.00935    -0.00086     0.01000    -0.01231    -0.00421
  
  S  H  12  -0.14228     0.05478    -0.09754     0.10830     0.16425    -0.13042
  
  S  C  13  -0.12112     0.10565    -0.07391    -0.20430     0.07239    -0.17349
 PX  C  13   0.04380     0.14652     0.15929     0.06299     0.00844     0.16531
 PY  C  13  -0.10329     0.07886    -0.02922     0.04611     0.21482    -0.01728
 PZ  C  13   0.00148    -0.01063     0.00367     0.01112    -0.01185     0.01009
  
  S  H  14   0.12942     0.06110    -0.14120    -0.11085    -0.16346     0.15246
  
  S  H  15   0.08007     0.15496     0.09749    -0.16367    -0.01707    -0.16504
  
  S  H  16   0.21425    -0.05506     0.19285     0.06679     0.07748    -0.08920
  
  S  H  17   0.21982    -0.05956     0.19790    -0.06057     0.11563    -0.07678
  
  S  H  18   0.02346     0.15716     0.11045     0.16106    -0.05138    -0.20296
  
  S  H  19   0.11421     0.05289    -0.13256     0.12115    -0.14760     0.13399
  
  S  H  20  -0.13480     0.05411    -0.10124    -0.09070     0.15987    -0.15346
  
  S  C  21  -0.15291    -0.18117     0.12408    -0.13741    -0.12609    -0.03158
 PX  C  21  -0.06964    -0.01508     0.13630     0.15225    -0.19641    -0.00285
 PY  C  21   0.16292    -0.02612    -0.15459     0.12613    -0.01292    -0.16029
 PZ  C  21   0.00493     0.00149    -0.00947    -0.00296     0.01202    -0.00592
  
  S  C  22   0.02377     0.13327    -0.00249     0.18508     0.05675     0.01300
 PX  C  22  -0.09346     0.12225     0.15910     0.10389    -0.01177     0.25968
 PY  C  22   0.06999     0.19791    -0.10141    -0.04130     0.24737     0.05473
 PZ  C  22   0.00764     0.00373    -0.01299    -0.00601     0.01187    -0.01564
  
  S  C  23  -0.01612     0.12140    -0.00722    -0.16696     0.03764    -0.02063
 PX  C  23   0.02809     0.24519    -0.01501    -0.01072     0.22367     0.16066
 PY  C  23  -0.14135     0.01953     0.18751    -0.14495    -0.12853     0.18310
 PZ  C  23  -0.01018    -0.01636     0.01410    -0.00573    -0.02752     0.00006
  
  S  C  24  -0.13579    -0.17818     0.11794     0.10652    -0.11954    -0.00181
 PX  C  24   0.06628    -0.04843    -0.07594    -0.16003    -0.12726    -0.17090
 PY  C  24  -0.18142    -0.00424     0.20062    -0.10389    -0.15950     0.06674
 PZ  C  24  -0.01347    -0.00368     0.02086    -0.00400    -0.02364     0.01158
  
  S  H  25  -0.18946    -0.08207     0.19455    -0.08644    -0.12492     0.07891
  
  S  H  26  -0.04426     0.14967     0.10229     0.16810     0.02528     0.20277
  
  S  H  27  -0.07373     0.15778     0.09677    -0.17741     0.02647     0.17017
  
  S  H  28  -0.19435    -0.07607     0.19792     0.04844    -0.10424     0.09950
  
  S  C  29   0.07595     0.10160    -0.01809    -0.10112     0.05808     0.15118
 PX  C  29  -0.09080    -0.15799    -0.05398    -0.16564     0.11050    -0.09198
 PY  C  29   0.24387    -0.08345    -0.15057    -0.01963    -0.08133     0.01116
 PZ  C  29   0.00012     0.00241     0.00296     0.01638    -0.00325    -0.00081
  
  S  C  30   0.14898     0.10631    -0.03492     0.08629     0.04856     0.14801
 PX  C  30   0.13710    -0.15729    -0.14610     0.11390    -0.00176    -0.00791
 PY  C  30  -0.16735    -0.08830     0.03045     0.13138     0.13844    -0.06724
 PZ  C  30  -0.00050    -0.00909     0.00550     0.02066    -0.00626     0.00838




    ROOT NO.   19          20          21          22          23          24

           -18.41482   -17.19317   -17.05368   -16.69349   -15.98428   -15.33666
  
  
  S  C   1  -0.15146     0.00767     0.03817    -0.12248    -0.05103     0.04897
 PX  C   1   0.07194    -0.19005    -0.03427     0.05440    -0.15544     0.11375
 PY  C   1   0.16214     0.15269     0.03840     0.04317    -0.17609    -0.03028
 PZ  C   1  -0.00541     0.00227    -0.00220     0.00298    -0.00303    -0.01615
  
  S  C   2   0.16900    -0.00179    -0.00569     0.08248    -0.00163     0.00341
 PX  C   2   0.11528     0.19750     0.01775     0.04049     0.16750    -0.12005
 PY  C   2  -0.01386     0.03141     0.11801    -0.23667     0.03908     0.25341
 PZ  C   2  -0.00431     0.00239    -0.00204     0.00336    -0.00583    -0.01175
  
  S  C   3  -0.06496    -0.09778     0.08769    -0.18211     0.08675     0.06260
 PX  C   3  -0.17302     0.01817     0.05788    -0.10053    -0.21464    -0.13396
 PY  C   3  -0.08412    -0.23077    -0.10704     0.11603     0.03438    -0.05806
 PZ  C   3  -0.01209    -0.01055    -0.00533     0.01171    -0.02687    -0.02147
  
  S  C   4   0.03941     0.01815    -0.11076     0.18624     0.05972    -0.03168
 PX  C   4   0.10806    -0.24841    -0.06616     0.02015    -0.13629     0.14236
 PY  C   4   0.11969     0.16193     0.00468     0.04195    -0.23155     0.02171
 PZ  C   4   0.02828     0.01206    -0.00031     0.01181    -0.06073    -0.00624
  
  S  C   5  -0.14875     0.03181     0.00767    -0.06351     0.01669    -0.03238
 PX  C   5  -0.01347     0.24733     0.00180     0.11130     0.15693    -0.14406
 PY  C   5  -0.08734     0.04959     0.09253    -0.17109     0.15707     0.18917
 PZ  C   5   0.00484     0.03217     0.00213     0.01566    -0.00654    -0.03015
  
  S  C   6   0.15431     0.00553    -0.03025     0.11052    -0.05397    -0.05398
 PX  C   6  -0.14320     0.06253     0.02255    -0.09809    -0.25691    -0.10877
 PY  C   6  -0.01328    -0.22758    -0.07962     0.05342    -0.05721    -0.01685
 PZ  C   6  -0.00703     0.01046    -0.00066     0.00299    -0.01707    -0.02658
  
  S  C   7  -0.10077    -0.01042    -0.01803     0.04282    -0.07063    -0.01812
 PX  C   7   0.16151    -0.00257    -0.11755     0.21902     0.14869     0.08753
 PY  C   7   0.09513    -0.15878     0.19097    -0.10664     0.07750    -0.11996
 PZ  C   7   0.02464    -0.00006    -0.00332     0.03090     0.01512    -0.00220
  
  S  C   8   0.10343    -0.06348     0.00803    -0.05229    -0.08974     0.03256
 PX  C   8  -0.16338     0.02822    -0.15077     0.04243     0.15762     0.00862
 PY  C   8  -0.06489    -0.09537     0.20106    -0.22389     0.15165    -0.07905
 PZ  C   8   0.00199     0.01111     0.01771    -0.01802    -0.00438    -0.00990
  
  S  C   9  -0.12623     0.20014    -0.15050     0.01315     0.07910     0.06379
 PX  C   9   0.03600     0.08520     0.06459    -0.01524    -0.07561     0.00941
 PY  C   9  -0.10308    -0.19367    -0.13984     0.05116     0.10837     0.03282
 PZ  C   9   0.00014     0.03179     0.01263    -0.00968     0.00514     0.00082
  
  S  C  10   0.16232     0.04721     0.21195    -0.04178     0.07498    -0.05712
 PX  C  10   0.02983    -0.13078     0.01589    -0.03546     0.03872     0.03082
 PY  C  10  -0.05914     0.25205     0.01065    -0.05357    -0.12077     0.02925
 PZ  C  10   0.00224     0.02305     0.00326     0.00452     0.00405     0.00229
  
  S  C  11  -0.10218    -0.02461    -0.04069    -0.04472    -0.07677    -0.00857
 PX  C  11  -0.17691     0.11542    -0.14746     0.03425    -0.11247    -0.00636
 PY  C  11  -0.07353    -0.02198     0.26337     0.12957    -0.09220    -0.15653
 PZ  C  11   0.00538     0.00776     0.02174     0.00055     0.00699    -0.00575
  
  S  H  12  -0.06825     0.05227    -0.28710    -0.10499    -0.02297     0.11060
  
  S  C  13   0.07429    -0.04668     0.02208     0.05612    -0.09420    -0.02169
 PX  C  13   0.16308     0.03855    -0.14203    -0.14646    -0.14386     0.15356
 PY  C  13   0.11475    -0.01084     0.29991     0.06037    -0.07198    -0.16260
 PZ  C  13  -0.01723     0.02275    -0.00492    -0.00460     0.01806     0.01596
  
  S  H  14  -0.05261     0.10564    -0.21010     0.19685    -0.03537     0.11595
  
  S  H  15  -0.21663    -0.02320     0.00494    -0.11418     0.17343    -0.00669
  
  S  H  16   0.13783     0.06255    -0.08948     0.24162     0.03412    -0.24477
  
  S  H  17  -0.12578    -0.05795     0.07641    -0.21101     0.05825     0.19525
  
  S  H  18   0.19223    -0.04130    -0.03180     0.13834     0.19908     0.06766
  
  S  H  19   0.06066    -0.12367     0.22505    -0.21140     0.00773    -0.05518
  
  S  H  20   0.05432    -0.05481     0.30441     0.13416    -0.04867    -0.19289
  
  S  C  21   0.16545    -0.00978    -0.01016    -0.07487    -0.01028     0.04612
 PX  C  21  -0.06413    -0.18263    -0.16858    -0.11757    -0.12645    -0.17284
 PY  C  21  -0.12753    -0.08359     0.12380     0.18508    -0.16628     0.25740
 PZ  C  21  -0.00324     0.02013     0.01495     0.00784    -0.00435     0.01061
  
  S  C  22  -0.16111     0.03380     0.05870     0.09771    -0.04343     0.04878
 PX  C  22  -0.14963    -0.05517    -0.02251     0.08318     0.25827    -0.16017
 PY  C  22   0.04795     0.23424     0.02457    -0.06923     0.08245    -0.07441
 PZ  C  22   0.00866     0.02000     0.00588    -0.00724    -0.02115     0.01118
  
  S  C  23   0.14942    -0.00554    -0.05282    -0.09709    -0.05948    -0.04827
 PX  C  23   0.14677     0.15965     0.07634    -0.05793     0.14517     0.18065
 PY  C  23   0.13542    -0.19182    -0.04296    -0.00919     0.15885     0.04100
 PZ  C  23  -0.00926    -0.02201    -0.00049     0.01479    -0.00511     0.00610
  
  S  C  24  -0.16499     0.02791     0.00507     0.05302     0.01735    -0.02175
 PX  C  24   0.02433    -0.17545    -0.11192    -0.02019    -0.17865    -0.19500
 PY  C  24  -0.04438    -0.11195     0.15545     0.22993    -0.05514     0.25615
 PZ  C  24  -0.01942    -0.00877     0.02442     0.03837     0.00202     0.04568
  
  S  H  25   0.14189    -0.02006    -0.17565    -0.22807     0.05993    -0.24992
  
  S  H  26  -0.20057    -0.02370     0.01053     0.11813     0.20290    -0.12012
  
  S  H  27   0.22831    -0.06868    -0.02440    -0.08229     0.15272     0.08515
  
  S  H  28  -0.12298     0.01268     0.17955     0.20949     0.04457     0.26809
  
  S  C  29  -0.04264    -0.04419     0.16200     0.17005     0.08077     0.00933
 PX  C  29   0.16587     0.20143     0.07226    -0.00676     0.09155     0.18300
 PY  C  29   0.10458    -0.16891    -0.07913    -0.01680     0.18385     0.05970
 PZ  C  29  -0.01896     0.01335     0.01055     0.00215    -0.00679    -0.01303
  
  S  C  30   0.07010    -0.04905    -0.17472    -0.13740     0.08692    -0.02679
 PX  C  30  -0.15041    -0.01772     0.05085     0.04469     0.22057    -0.16403
 PY  C  30  -0.01935     0.26571    -0.01381    -0.12982    -0.01015    -0.05418
 PZ  C  30  -0.02399     0.02414     0.00458     0.00038     0.01819     0.00435




    ROOT NO.   25          26          27          28          29          30

           -14.98515   -14.91953   -14.77711   -14.36747   -13.74648   -13.47330
  
  
  S  C   1  -0.04269    -0.00653     0.04854     0.01621    -0.05000     0.00303
 PX  C   1  -0.08741     0.23790    -0.11245    -0.00735    -0.03910    -0.01605
 PY  C   1   0.08835     0.14090     0.18451     0.07534    -0.09340     0.09971
 PZ  C   1  -0.00154    -0.04170    -0.05583     0.15149    -0.00874    -0.24427
  
  S  C   2   0.03131     0.10775     0.03473     0.02434     0.02347     0.01930
 PX  C   2   0.10854    -0.17264     0.11712     0.01990     0.07014     0.01136
 PY  C   2  -0.19090     0.17204     0.09695     0.05693     0.05541    -0.06713
 PZ  C   2  -0.00980    -0.03769    -0.06551     0.18396    -0.00826    -0.24742
  
  S  C   3  -0.01269    -0.02033    -0.02527    -0.02416    -0.02421     0.00045
 PX  C   3   0.15876    -0.07783     0.01808    -0.01474    -0.18183     0.05269
 PY  C   3   0.00742    -0.07176    -0.19047    -0.09904    -0.00831     0.04382
 PZ  C   3  -0.01164    -0.04589    -0.10603     0.27484    -0.02017    -0.25986
  
  S  C   4  -0.03211    -0.01058    -0.05511    -0.01182    -0.02557    -0.00586
 PX  C   4  -0.15785     0.03131    -0.03224    -0.03324    -0.20233     0.01906
 PY  C   4  -0.00701     0.09541     0.17916     0.03633    -0.19350     0.03950
 PZ  C   4  -0.01590    -0.03023    -0.08229     0.28565    -0.05138    -0.26827
  
  S  C   5   0.01674    -0.08392     0.04941     0.00621     0.03032     0.00586
 PX  C   5   0.13692     0.01143     0.01487    -0.00576     0.18332     0.02475
 PY  C   5  -0.10360     0.23361     0.17925     0.09799     0.08038     0.05630
 PZ  C   5   0.01591    -0.02969    -0.06023     0.19348    -0.00679    -0.25237
  
  S  C   6   0.05044     0.00842    -0.02901    -0.01490    -0.04276     0.01167
 PX  C   6   0.07966    -0.22806     0.11586    -0.01086    -0.18698     0.05106
 PY  C   6  -0.04838    -0.13852    -0.21976    -0.09485    -0.03588    -0.08856
 PZ  C   6   0.01025    -0.04954    -0.04875     0.15200    -0.02056    -0.24101
  
  S  C   7   0.00086     0.05578    -0.04755    -0.00786     0.03215     0.01291
 PX  C   7  -0.12066     0.12358    -0.01254    -0.02726     0.19764    -0.00117
 PY  C   7   0.33416     0.15368     0.03904     0.06855     0.06341     0.06728
 PZ  C   7  -0.02857    -0.00856    -0.08289     0.24650     0.03549    -0.11214
  
  S  C   8  -0.01354    -0.04913    -0.02294    -0.01139     0.00007    -0.01015
 PX  C   8  -0.11783    -0.16940     0.15947     0.01701     0.20245     0.04395
 PY  C   8   0.18496    -0.02575    -0.20982    -0.08251     0.19959    -0.02722
 PZ  C   8  -0.00456    -0.04357    -0.10100     0.23725     0.02212    -0.11643
  
  S  C   9  -0.00433     0.00175     0.02182    -0.00478     0.00068    -0.01351
 PX  C   9   0.12420     0.17735    -0.17229    -0.01648    -0.19378    -0.04889
 PY  C   9   0.08698     0.05787    -0.10418     0.00558    -0.16495     0.07617
 PZ  C   9  -0.04180    -0.05903    -0.11149     0.28682     0.02613     0.04043
  
  S  C  10   0.01535     0.02030    -0.01524     0.01923    -0.00557    -0.01513
 PX  C  10  -0.19684    -0.22034    -0.03587    -0.08433    -0.23802     0.02078
 PY  C  10  -0.13882    -0.09687    -0.00025    -0.05089    -0.05629    -0.08514
 PZ  C  10  -0.06352    -0.05578    -0.10359     0.28691     0.00628     0.03852
  
  S  C  11  -0.00428    -0.06849     0.03094     0.00826     0.00977     0.01311
 PX  C  11   0.16831     0.18195     0.03172     0.08474     0.24684    -0.00338
 PY  C  11  -0.23294     0.02658    -0.12065    -0.08766     0.17862     0.02413
 PZ  C  11  -0.06298    -0.05032    -0.09659     0.21882    -0.01458     0.16533
  
  S  H  12   0.24098     0.02955     0.12086     0.09325    -0.02608    -0.02518
  
  S  C  13   0.00746     0.07027     0.02589     0.03837    -0.03797     0.00457
 PX  C  13   0.10324    -0.05527    -0.06244    -0.02104     0.21407    -0.01277
 PY  C  13  -0.21781    -0.10764     0.20854     0.04999     0.13207    -0.02332
 PZ  C  13  -0.01973    -0.03553    -0.11936     0.21821    -0.01111     0.18000
  
  S  H  14  -0.29630    -0.04074    -0.05565    -0.06511     0.05559    -0.04732
  
  S  H  15  -0.04876    -0.22656    -0.06986    -0.04845     0.07176    -0.07512
  
  S  H  16   0.20360    -0.15914    -0.00973    -0.02410     0.00159     0.06585
  
  S  H  17  -0.13116     0.14021     0.15263     0.07501     0.00146     0.04407
  
  S  H  18  -0.04304     0.21293    -0.11572    -0.00111     0.16198    -0.03447
  
  S  H  19   0.17745     0.02386    -0.23425    -0.06942     0.08504    -0.04766
  
  S  H  20  -0.20069    -0.02682     0.19505     0.05234    -0.00434    -0.02041
  
  S  C  21  -0.02349    -0.08366    -0.02565    -0.02183    -0.01528     0.00767
 PX  C  21  -0.08971    -0.03998     0.06772     0.02817     0.22772     0.07097
 PY  C  21   0.15854    -0.15320     0.13396     0.05715     0.15908    -0.02072
 PZ  C  21  -0.02010    -0.01319    -0.07530     0.12907    -0.00640     0.23249
  
  S  C  22   0.04093     0.03473    -0.02991    -0.01521     0.03712    -0.01072
 PX  C  22   0.01254     0.19217     0.09250     0.07546    -0.22202    -0.04305
 PY  C  22  -0.09147     0.12079    -0.22910    -0.11131    -0.13501     0.01097
 PZ  C  22  -0.02062    -0.01735    -0.07440     0.09000     0.01238     0.22034
  
  S  C  23  -0.04295    -0.01320    -0.00681     0.00400     0.06097     0.01949
 PX  C  23  -0.01272    -0.22005    -0.08407    -0.06302    -0.03802     0.06384
 PY  C  23   0.05808    -0.14523     0.25431     0.10249    -0.02723    -0.04215
 PZ  C  23  -0.00141    -0.00512    -0.03863     0.12210    -0.00272     0.22831
  
  S  C  24   0.00448     0.07689    -0.06646    -0.02533    -0.04961    -0.00373
 PX  C  24  -0.00981     0.18496     0.09694     0.07978     0.07962    -0.03407
 PY  C  24   0.14734    -0.04123    -0.01131    -0.02894     0.02874    -0.01402
 PZ  C  24   0.00546    -0.02243    -0.08291     0.14929    -0.01476     0.27505
  
  S  H  25  -0.16858     0.06001    -0.08073    -0.04529    -0.03051     0.04632
  
  S  H  26   0.03145     0.19535     0.06786     0.05642    -0.19720    -0.05653
  
  S  H  27   0.01487    -0.21896     0.15657     0.05175    -0.01316     0.00201
  
  S  H  28   0.10812    -0.08455    -0.08955    -0.05714    -0.04556     0.03119
  
  S  C  29  -0.00454     0.02941     0.03586     0.01941     0.00037     0.00258
 PX  C  29   0.08679    -0.00923    -0.08689    -0.02116    -0.23074    -0.04803
 PY  C  29   0.08090    -0.08247     0.15631     0.07711    -0.19595     0.01506
 PZ  C  29  -0.05439    -0.03065    -0.11075     0.22362     0.00525     0.29914
  
  S  C  30   0.03234    -0.03638     0.06561     0.01591     0.03507    -0.00746
 PX  C  30  -0.10925    -0.00053     0.09616     0.01664    -0.18186     0.00223
 PY  C  30  -0.08653     0.00808    -0.13238    -0.07874    -0.00773    -0.03422
 PZ  C  30  -0.03761    -0.03258    -0.12889     0.22946    -0.02218     0.32170




    ROOT NO.   31          32          33          34          35          36

           -13.02300   -12.94202   -12.13238   -11.78992   -11.66159   -11.51074
  
  
  S  C   1  -0.01729    -0.01528     0.01986     0.01218    -0.00901     0.01807
 PX  C   1   0.26235    -0.16609    -0.05655    -0.05922     0.04481     0.13508
 PY  C   1  -0.08728    -0.20224     0.19560     0.13181    -0.06392     0.11004
 PZ  C   1  -0.06197    -0.07777    -0.04249    -0.08649    -0.29411     0.04825
  
  S  C   2  -0.00992    -0.03482    -0.00876    -0.02462     0.00643    -0.02760
 PX  C   2  -0.25560     0.16940     0.01875     0.02227    -0.03467    -0.16971
 PY  C   2  -0.00079     0.12143    -0.18184    -0.15463     0.04851    -0.15420
 PZ  C   2  -0.06021    -0.08486    -0.01148    -0.04472    -0.20625     0.04794
  
  S  C   3  -0.01348     0.04140     0.00142     0.00456    -0.00106     0.00337
 PX  C   3   0.17320    -0.18655    -0.04981    -0.10873     0.09362     0.18666
 PY  C   3   0.03530    -0.06751     0.21903     0.24068    -0.09368     0.15241
 PZ  C   3  -0.05512    -0.10172     0.04130     0.02844    -0.01505     0.03144
  
  S  C   4   0.02852    -0.02414     0.01310     0.00915     0.00035    -0.01990
 PX  C   4  -0.14384     0.09835     0.13552     0.15785    -0.09621    -0.15706
 PY  C   4   0.01628    -0.00769    -0.16521    -0.20983     0.09162    -0.15924
 PZ  C   4  -0.05866    -0.06864    -0.02591    -0.01615    -0.00532    -0.03561
  
  S  C   5  -0.02284     0.00357    -0.02576    -0.04084     0.02531     0.02910
 PX  C   5   0.16402    -0.11131    -0.10000    -0.11774     0.09711     0.14798
 PY  C   5  -0.09417    -0.15979     0.17217     0.12189    -0.06112     0.11945
 PZ  C   5  -0.03505    -0.09490    -0.06522    -0.09211    -0.18496     0.03073
  
  S  C   6   0.02518    -0.01135    -0.00087     0.00083     0.00540    -0.01479
 PX  C   6  -0.19483     0.09528     0.08356     0.07765    -0.03036    -0.10195
 PY  C   6   0.11991     0.18701    -0.19452    -0.12890     0.06329    -0.13333
 PZ  C   6  -0.06315    -0.07619    -0.05777    -0.10028    -0.28739     0.03419
  
  S  C   7   0.04346    -0.06665     0.00246    -0.04361     0.01941    -0.00778
 PX  C   7  -0.15586     0.13542     0.04631     0.07246    -0.09983    -0.19257
 PY  C   7  -0.13957    -0.08444    -0.03245    -0.15886     0.04023    -0.14254
 PZ  C   7  -0.06513    -0.01602     0.07499     0.07008     0.15740    -0.04711
  
  S  C   8  -0.05474     0.05745    -0.01991    -0.05752     0.02776     0.01106
 PX  C   8  -0.11394    -0.09936    -0.00034    -0.14798     0.06815     0.23788
 PY  C   8   0.09709     0.03831     0.06948     0.15186    -0.07075     0.12788
 PZ  C   8  -0.00617    -0.00467     0.01963     0.07773     0.16644    -0.00477
  
  S  C   9   0.06371    -0.03275    -0.00350     0.00724    -0.01644    -0.01421
 PX  C   9   0.16218     0.06709     0.01609     0.19522    -0.08219    -0.24029
 PY  C   9  -0.14681    -0.19248     0.10994    -0.20177     0.06825    -0.14219
 PZ  C   9   0.02667     0.03720     0.05144     0.11711     0.31252    -0.01092
  
  S  C  10  -0.01214     0.06411     0.00178    -0.00297     0.01755    -0.02272
 PX  C  10  -0.05612    -0.08551     0.07717    -0.15563     0.05646     0.21583
 PY  C  10   0.25570     0.11629    -0.05163     0.23426    -0.07256     0.12890
 PZ  C  10   0.00590     0.03413     0.09330     0.09866     0.33057    -0.00925
  
  S  C  11   0.03520    -0.06039     0.03818    -0.04800     0.01260     0.01483
 PX  C  11   0.07890     0.03758    -0.04275     0.12571    -0.04349    -0.20368
 PY  C  11  -0.07118    -0.09147     0.18242    -0.16565    -0.01246    -0.11112
 PZ  C  11   0.02172     0.04418     0.06927     0.00553     0.17287     0.01135
  
  S  H  12   0.11221     0.06128    -0.17358     0.20327    -0.01973     0.00500
  
  S  C  13  -0.03600     0.05990     0.01671    -0.03743     0.01576    -0.00855
 PX  C  13  -0.11952     0.17185     0.05052    -0.09840     0.03903     0.24369
 PY  C  13   0.07409     0.09721    -0.12327     0.11409    -0.00641     0.13816
 PZ  C  13   0.03960     0.02593     0.01998     0.04294     0.12336    -0.04188
  
  S  H  14   0.06220     0.09954     0.05455     0.17182    -0.07940     0.03021
  
  S  H  15  -0.06670     0.24851    -0.13180    -0.07821     0.02659    -0.16231
  
  S  H  16  -0.12255    -0.04042     0.16992     0.14709    -0.06565     0.04667
  
  S  H  17  -0.16600    -0.07111     0.19399     0.16160    -0.09090     0.04564
  
  S  H  18   0.20532    -0.09889    -0.08188    -0.07449     0.04390     0.10212
  
  S  H  19   0.10301     0.10356     0.05588     0.19965    -0.08507     0.01722
  
  S  H  20   0.09545     0.03103    -0.13655     0.15082    -0.02462     0.00520
  
  S  C  21   0.00668    -0.01686     0.03137    -0.02961    -0.00071     0.02465
 PX  C  21   0.00394    -0.21133    -0.11459     0.09124    -0.02524    -0.16232
 PY  C  21   0.16230     0.02394     0.15569    -0.06871    -0.03585    -0.07987
 PZ  C  21   0.02367     0.06634    -0.04157    -0.08508    -0.20526     0.04663
  
  S  C  22  -0.03618    -0.00292    -0.00768     0.00773     0.01797    -0.00931
 PX  C  22   0.04706     0.22966     0.06486    -0.05811    -0.02094     0.10820
 PY  C  22  -0.22212    -0.05322    -0.17201     0.07818     0.06507     0.08922
 PZ  C  22  -0.00253     0.03126    -0.10047    -0.07548    -0.27822     0.05210
  
  S  C  23  -0.02192     0.00873    -0.01280    -0.00753    -0.00759     0.02768
 PX  C  23   0.04495    -0.25867    -0.06262     0.05704    -0.04014    -0.14212
 PY  C  23   0.26198     0.05508     0.18602    -0.06822    -0.03649    -0.07608
 PZ  C  23   0.02035     0.07530    -0.10231    -0.07828    -0.30348     0.06460
  
  S  C  24  -0.01367    -0.01160     0.03157    -0.01980    -0.00793    -0.03934
 PX  C  24  -0.06951     0.26002     0.01244    -0.04398     0.02788     0.17580
 PY  C  24  -0.20341    -0.01249    -0.20943     0.10794     0.09320     0.12970
 PZ  C  24  -0.00233     0.04779    -0.13730    -0.03322    -0.23768     0.04529
  
  S  H  25  -0.12749    -0.13691    -0.18842     0.10910     0.02558    -0.00466
  
  S  H  26   0.02428     0.22251     0.06094    -0.04859     0.00148     0.10890
  
  S  H  27   0.23245    -0.07866     0.12445    -0.03117    -0.05235    -0.13120
  
  S  H  28  -0.13306    -0.14438    -0.19323     0.11496     0.03634     0.00239
  
  S  C  29  -0.03031     0.02539    -0.00349    -0.01177     0.00295    -0.01212
 PX  C  29   0.02836     0.20598     0.13742    -0.11176     0.01023     0.17192
 PY  C  29  -0.00275    -0.00549    -0.27007     0.19191     0.02993     0.11763
 PZ  C  29   0.04863     0.05878     0.00797    -0.05086    -0.05212    -0.00433
  
  S  C  30   0.01484    -0.01505    -0.01738     0.00732     0.00466     0.02492
 PX  C  30   0.16005    -0.19050    -0.07087     0.12759    -0.04444    -0.22794
 PY  C  30   0.13655    -0.01278     0.30321    -0.18064    -0.05085    -0.12249
 PZ  C  30   0.05996     0.04448    -0.03271    -0.02375    -0.09202    -0.03132




    ROOT NO.   37          38          39          40          41          42

           -10.67883    -9.77038    -9.74071    -8.32908    -7.94831    -6.68718
  
  
  S  C   1   0.00068     0.00464     0.00295     0.00169     0.00575     0.00118
 PX  C   1  -0.00407     0.00329     0.00656     0.00047     0.00805    -0.00027
 PY  C   1   0.01342     0.01221    -0.00253     0.00145     0.00666     0.00276
 PZ  C   1  -0.10348     0.23472     0.31230     0.23636     0.22317     0.18267
  
  S  C   2   0.00335     0.00361    -0.00426    -0.00630    -0.00156    -0.00763
 PX  C   2  -0.00087    -0.00461    -0.00157     0.00116    -0.01085    -0.00094
 PY  C   2  -0.01477    -0.00638     0.01016     0.00110    -0.00855    -0.00500
 PZ  C   2  -0.20333    -0.05489     0.36130     0.33830    -0.02927     0.23487
  
  S  C   3   0.01545     0.02528    -0.01060    -0.00544     0.02441     0.00403
 PX  C   3   0.00574     0.00654    -0.00037    -0.00226     0.02292     0.00125
 PY  C   3   0.03373     0.03493    -0.02850    -0.01358     0.02183     0.00531
 PZ  C   3  -0.20526    -0.37645     0.10023     0.01655    -0.31796    -0.13296
  
  S  C   4   0.00930    -0.00836    -0.01181     0.00174    -0.00522     0.00257
 PX  C   4  -0.00642     0.02141     0.01494     0.00335     0.02691    -0.01383
 PY  C   4  -0.03861     0.01279     0.05667     0.01980     0.04855    -0.01665
 PZ  C   4   0.21321    -0.15574    -0.34304    -0.06329    -0.30763     0.15923
  
  S  C   5  -0.00032    -0.00606     0.00023    -0.00173    -0.00453    -0.00191
 PX  C   5  -0.02256    -0.03017     0.02882     0.02634    -0.00612     0.01755
 PY  C   5   0.02105     0.00375    -0.01301    -0.00012    -0.00486     0.00560
 PZ  C   5   0.19492     0.23809    -0.27841    -0.33571    -0.00374    -0.22434
  
  S  C   6  -0.00633    -0.00261     0.00620     0.00414     0.00302     0.00046
 PX  C   6  -0.00276    -0.01328    -0.00064     0.00663    -0.00722     0.00530
 PY  C   6  -0.02092    -0.00929     0.01166     0.00332     0.00014    -0.00162
 PZ  C   6   0.08456     0.39200    -0.02639    -0.20058     0.24535    -0.20673
  
  S  C   7  -0.00028    -0.00480     0.00169     0.00389    -0.00208     0.00144
 PX  C   7   0.04403     0.05068    -0.01788     0.02502    -0.00328     0.04787
 PY  C   7   0.01414     0.01213     0.00105     0.02100    -0.00191     0.02346
 PZ  C   7  -0.30696    -0.29109     0.10271    -0.20961     0.01820    -0.38140
  
  S  C   8   0.01403    -0.00493    -0.00046     0.01498    -0.00084     0.01629
 PX  C   8   0.02160    -0.00702     0.00083    -0.00668    -0.01711    -0.00969
 PY  C   8  -0.02490     0.00742     0.00579    -0.02931    -0.01605    -0.02659
 PZ  C   8   0.32681    -0.09796    -0.27457     0.22086     0.01075     0.38389
  
  S  C   9  -0.00828    -0.00191    -0.00972    -0.00424    -0.00729     0.00408
 PX  C   9  -0.01726     0.00538    -0.00844     0.01060     0.01895     0.01008
 PY  C   9   0.01688    -0.01508    -0.00974     0.01604     0.03860     0.00736
 PZ  C   9   0.27920     0.03121     0.01312     0.26428     0.34324    -0.01616
  
  S  C  10  -0.02284    -0.00116     0.00791    -0.01466     0.02918    -0.00559
 PX  C  10   0.02725    -0.02267    -0.00112     0.00463    -0.01196    -0.01051
 PY  C  10  -0.00580     0.00492    -0.00192    -0.00409    -0.01832    -0.00788
 PZ  C  10  -0.25784     0.03119     0.01515    -0.21133     0.38342    -0.00860
  
  S  C  11  -0.00242    -0.00691    -0.00196    -0.00769     0.00005     0.00839
 PX  C  11  -0.03830     0.03063    -0.00403    -0.01771     0.01590     0.02670
 PY  C  11   0.02914    -0.02217     0.00157     0.00077     0.01256    -0.00022
 PZ  C  11  -0.33840     0.28550    -0.08248    -0.21650     0.01714     0.35372
  
  S  H  12  -0.02487     0.01684     0.00149     0.00148    -0.00815    -0.00828
  
  S  C  13   0.01355     0.00488     0.01075     0.00412    -0.00081    -0.00026
 PX  C  13   0.01589     0.00990     0.01992    -0.00799    -0.02508    -0.01170
 PY  C  13   0.02082     0.01173     0.02264     0.00594    -0.01924    -0.02350
 PZ  C  13   0.34120     0.10827     0.26867     0.22091    -0.02664    -0.37457
  
  S  H  14   0.00607     0.01194    -0.01007    -0.00849    -0.00479     0.00092
  
  S  H  15  -0.01088    -0.01171     0.00159     0.00054    -0.01035    -0.00067
  
  S  H  16   0.01146     0.00336    -0.00655     0.00387    -0.00146     0.00842
  
  S  H  17   0.02313     0.00946    -0.01710    -0.00303    -0.00392     0.00474
  
  S  H  18  -0.00291    -0.00175     0.00400     0.00173    -0.00139     0.00290
  
  S  H  19  -0.01847     0.00751    -0.00155    -0.01606    -0.00903    -0.00980
  
  S  H  20  -0.00060     0.00683     0.00346     0.00324    -0.00789    -0.00271
  
  S  C  21   0.00341    -0.00420    -0.00143     0.00298    -0.00335    -0.00491
 PX  C  21  -0.02558     0.00826    -0.02280     0.01803     0.00497    -0.00687
 PY  C  21   0.00808    -0.01016     0.00153    -0.00324     0.00702     0.00098
 PZ  C  21  -0.23155     0.03404    -0.35833     0.36227    -0.04427    -0.22611
  
  S  C  22   0.00177     0.01273     0.01073    -0.00766    -0.00924     0.00643
 PX  C  22  -0.00074    -0.02068    -0.02120     0.01870     0.01616    -0.01482
 PY  C  22  -0.00188     0.02296     0.01655    -0.01062    -0.01916     0.00797
 PZ  C  22  -0.12723    -0.21884    -0.32033     0.25823     0.25629    -0.19438
  
  S  C  23   0.01127    -0.01413     0.00771    -0.00955     0.01001     0.00341
 PX  C  23  -0.01298    -0.03004    -0.01338    -0.01595     0.02846     0.02065
 PY  C  23   0.00373     0.00721     0.00024     0.00720    -0.01476    -0.00690
 PZ  C  23   0.07629    -0.36838    -0.00859    -0.20302     0.30634     0.18745
  
  S  C  24   0.00151    -0.00887    -0.00188    -0.00344     0.00386     0.00405
 PX  C  24   0.02013     0.00963     0.01972    -0.00285    -0.01306    -0.00542
 PY  C  24  -0.04528     0.05450    -0.03141     0.04534    -0.01049    -0.02643
 PZ  C  24   0.19026    -0.23616     0.22603    -0.34019     0.02836     0.21633
  
  S  H  25  -0.01170     0.01131     0.00022    -0.00161    -0.00324     0.00426
  
  S  H  26   0.00522    -0.00528    -0.00345     0.00636     0.00119    -0.00604
  
  S  H  27  -0.00045    -0.00928    -0.00484    -0.00076     0.00010     0.00224
  
  S  H  28  -0.03004     0.01770    -0.01476     0.00643    -0.00130     0.00278
  
  S  C  29   0.00091     0.00956    -0.00231     0.00877    -0.00508    -0.00313
 PX  C  29   0.00557    -0.00002     0.00189    -0.00354    -0.01838     0.00328
 PY  C  29  -0.03212     0.03201    -0.00426     0.00762    -0.02656    -0.00583
 PZ  C  29  -0.24110     0.32199    -0.11242     0.02993    -0.36197     0.14342
  
  S  C  30  -0.01876    -0.00654    -0.01807    -0.00143     0.02027     0.00767
 PX  C  30  -0.02246    -0.01128    -0.02500     0.00906     0.02774     0.00989
 PY  C  30   0.01430    -0.03938    -0.01302    -0.00725     0.02828     0.01423
 PZ  C  30   0.21660     0.11231     0.30565    -0.07050    -0.34317    -0.12740




    ROOT NO.   43          44          45          46          47          48

            -1.05541     0.11000     0.36057     1.31271     1.32838     1.83945
  
  
  S  C   1   0.00391     0.00796    -0.00053     0.01016     0.00913     0.00439
 PX  C   1   0.00269     0.00595     0.00270     0.00518     0.00976     0.00437
 PY  C   1   0.00259     0.00233    -0.00368     0.00258    -0.00265    -0.00101
 PZ  C   1   0.17987     0.17613    -0.26125     0.34632    -0.18576    -0.11935
  
  S  C   2   0.00170    -0.02016    -0.01201    -0.01610    -0.03516    -0.02018
 PX  C   2  -0.00433    -0.00936    -0.00356    -0.00586    -0.01435    -0.00759
 PY  C   2  -0.00554    -0.01354    -0.00237    -0.01196    -0.01692    -0.00896
 PZ  C   2  -0.22693     0.08243     0.31394    -0.10696     0.34827     0.21492
  
  S  C   3   0.01166     0.03577     0.01022     0.03380     0.06248     0.04095
 PX  C   3   0.01445     0.02428    -0.00456     0.02415     0.00709    -0.00712
 PY  C   3   0.01218     0.01946    -0.00556     0.01676     0.02072     0.02141
 PZ  C   3  -0.13324    -0.31985     0.03916    -0.31169    -0.25138    -0.20457
  
  S  C   4  -0.01808    -0.00307     0.00721     0.00872    -0.04623    -0.05290
 PX  C   4   0.00162    -0.02716     0.01089    -0.02240     0.00153     0.00471
 PY  C   4   0.01640    -0.02366     0.01621    -0.01076     0.03328     0.02750
 PZ  C   4  -0.16791     0.29525    -0.11309     0.28662    -0.24909    -0.22099
  
  S  C   5   0.00841    -0.00161    -0.00689    -0.00960     0.01570     0.02444
 PX  C   5   0.02471    -0.00218    -0.03040    -0.00810    -0.01550     0.00022
 PY  C   5   0.00038     0.00280    -0.00143     0.00236    -0.00041    -0.00056
 PZ  C   5  -0.22351     0.06149     0.32169     0.09275     0.35940     0.20143
  
  S  C   6  -0.00533     0.00049     0.00905     0.00517     0.00254    -0.00418
 PX  C   6  -0.01211     0.00905     0.01001     0.01207     0.00676     0.00122
 PY  C   6  -0.00406     0.00156     0.00402     0.00627    -0.00001    -0.00376
 PZ  C   6   0.21472    -0.27269    -0.15598    -0.33518    -0.19112    -0.07913
  
  S  C   7   0.00055    -0.02882    -0.01239    -0.01784    -0.02899     0.00514
 PX  C   7  -0.04274     0.00411     0.02179    -0.01627    -0.00441    -0.00187
 PY  C   7  -0.01980    -0.01348     0.00291    -0.01466    -0.01276     0.00451
 PZ  C   7   0.37763    -0.05182    -0.20802     0.23503     0.21325     0.29644
  
  S  C   8   0.02995     0.00080    -0.01263    -0.02429     0.03402     0.02758
 PX  C   8  -0.00249     0.00853     0.00423     0.00222    -0.00463    -0.02260
 PY  C   8  -0.02867     0.00544     0.01228     0.01387    -0.02004    -0.02857
 PZ  C   8   0.38637    -0.03397    -0.22616    -0.18102     0.18838     0.31493
  
  S  C   9  -0.01095    -0.01402    -0.00972     0.01537    -0.01501     0.02598
 PX  C   9   0.00658    -0.01887    -0.00363    -0.00823     0.00530     0.02019
 PY  C   9   0.00560    -0.00069     0.02171     0.00351     0.00397    -0.02698
 PZ  C   9   0.01328    -0.29549     0.33618    -0.04496     0.01068    -0.27400
  
  S  C  10  -0.00390     0.04870     0.02947     0.00860     0.01305    -0.06056
 PX  C  10   0.01152    -0.00868    -0.00498     0.00534     0.00197    -0.00519
 PY  C  10   0.00003    -0.01200    -0.00631    -0.00410    -0.00534    -0.00139
 PZ  C  10  -0.01310     0.41876     0.15353     0.01628    -0.00966    -0.25838
  
  S  C  11  -0.00355    -0.02028    -0.01635    -0.00856    -0.02274     0.06011
 PX  C  11  -0.02686     0.01281     0.00015    -0.01018    -0.01356     0.00838
 PY  C  11   0.00628     0.00187     0.00816     0.00397    -0.00287     0.00199
 PZ  C  11  -0.35300    -0.06672    -0.21851    -0.19747    -0.19405     0.34330
  
  S  H  12   0.00672     0.00817     0.00424     0.00400     0.01641    -0.03392
  
  S  C  13   0.00659     0.01043    -0.00166    -0.01737     0.01412    -0.01182
 PX  C  13  -0.00117     0.00937    -0.00550    -0.00502     0.00550    -0.00846
 PY  C  13  -0.01886    -0.00243    -0.01148     0.01222    -0.01258     0.01907
 PZ  C  13  -0.36964    -0.07295    -0.20448     0.22356    -0.19187     0.31846
  
  S  H  14  -0.00196     0.01136    -0.00082     0.00744     0.01035     0.00405
  
  S  H  15  -0.00540    -0.00528     0.00052    -0.00642    -0.00780    -0.00398
  
  S  H  16  -0.00329     0.01047     0.00550     0.00691     0.01721     0.01226
  
  S  H  17  -0.00340     0.00315    -0.00108     0.00437    -0.01173    -0.01392
  
  S  H  18   0.00626     0.00115    -0.00980    -0.00212    -0.00421     0.00182
  
  S  H  19  -0.01566     0.00086     0.00211     0.01088    -0.02158    -0.01496
  
  S  H  20   0.00178    -0.00390    -0.00288     0.00242    -0.00361     0.00961
  
  S  C  21   0.00323     0.00213    -0.00429    -0.00814    -0.00576     0.01979
 PX  C  21   0.00750     0.00826     0.01725     0.00525    -0.00853    -0.00341
 PY  C  21  -0.00513     0.00239    -0.00810    -0.00608     0.00768    -0.00550
 PZ  C  21   0.22267     0.10138     0.35221     0.12359    -0.33740     0.22607
  
  S  C  22   0.00906    -0.00225     0.01987     0.01196    -0.01288    -0.00098
 PX  C  22  -0.01403     0.00979    -0.02269    -0.01852     0.01322    -0.00507
 PY  C  22   0.01296    -0.00711     0.01656     0.00931    -0.01352     0.01199
 PZ  C  22  -0.20288     0.19676    -0.31142    -0.33573     0.19217    -0.10600
  
  S  C  23  -0.01747    -0.01643    -0.01960     0.02178     0.01533    -0.00683
 PX  C  23  -0.00792    -0.02026    -0.00748     0.01418     0.01422    -0.01149
 PY  C  23   0.01385     0.01545     0.01393    -0.01133    -0.01277     0.00654
 PZ  C  23  -0.18201    -0.33461    -0.12357     0.34185     0.14164    -0.09790
  
  S  C  24   0.01356     0.01714     0.00665    -0.02636     0.00545    -0.01174
 PX  C  24   0.00301     0.00541     0.01034    -0.00464    -0.01619     0.01272
 PY  C  24  -0.03117    -0.01890    -0.03362     0.02256     0.02462    -0.01521
 PZ  C  24   0.21687     0.09964     0.32081    -0.12725    -0.30306     0.21196
  
  S  H  25   0.00036    -0.00523     0.00258     0.00574     0.00251    -0.00813
  
  S  H  26  -0.00434     0.00111    -0.01082    -0.00776     0.00555     0.00358
  
  S  H  27   0.01286     0.01034     0.01408    -0.01489    -0.01140     0.00680
  
  S  H  28  -0.00194    -0.01061    -0.00015     0.01147    -0.00252     0.00678
  
  S  C  29  -0.00200     0.00730    -0.00213     0.00096     0.02876    -0.04896
 PX  C  29   0.00694    -0.01747     0.00060     0.01072     0.00242    -0.00018
 PY  C  29   0.00395    -0.00693    -0.01368    -0.00355     0.01455    -0.00370
 PZ  C  29   0.14840    -0.35284     0.03656     0.24058     0.24816    -0.25277
  
  S  C  30  -0.01564    -0.02488     0.01193     0.03055    -0.03409     0.03419
 PX  C  30  -0.00402    -0.01310     0.00099     0.00592    -0.00629     0.01585
 PY  C  30  -0.00195    -0.01552     0.00769     0.01372    -0.00138    -0.00468
 PZ  C  30   0.13059     0.33096    -0.14372    -0.24304     0.23052    -0.21683




    ROOT NO.   49          50          51          52          53          54

             2.29525     2.50155     2.84463     3.13909     3.24694     3.43335
  
  
  S  C   1  -0.04888    -0.06787    -0.14069    -0.01928     0.17247    -0.10371
 PX  C   1  -0.01803    -0.01754    -0.02251    -0.02305     0.00949    -0.06642
 PY  C   1  -0.00669    -0.01315    -0.02775     0.01465     0.02956     0.03962
 PZ  C   1   0.25073    -0.19406     0.02081     0.26476    -0.02996    -0.07861
  
  S  C   2   0.08628     0.10006     0.19282     0.05681    -0.18933     0.18511
 PX  C   2   0.02425     0.02005     0.02337     0.01838     0.00515     0.03316
 PY  C   2   0.03126     0.03673     0.05229     0.01485    -0.03008     0.04334
 PZ  C   2  -0.15176     0.15517     0.00409    -0.26010     0.01694     0.10008
  
  S  C   3  -0.13666    -0.16839    -0.26623    -0.05371     0.18054    -0.20614
 PX  C   3  -0.01504    -0.00806     0.04903    -0.03803    -0.09541    -0.08331
 PY  C   3  -0.01891    -0.03276    -0.04619     0.02987     0.01021     0.10499
 PZ  C   3  -0.03351    -0.04519    -0.01621     0.27958    -0.02362    -0.12601
  
  S  C   4   0.14144     0.18331     0.30859    -0.08371    -0.18920    -0.13862
 PX  C   4   0.02446     0.02642     0.00812     0.02826     0.04375     0.03987
 PY  C   4   0.00267    -0.00163    -0.02987    -0.02973     0.07270    -0.14783
 PZ  C   4  -0.00819    -0.00310    -0.08272    -0.28167     0.08330     0.10791
  
  S  C   5  -0.09002    -0.11507    -0.22837     0.07001     0.19282     0.14924
 PX  C   5  -0.04665    -0.03591    -0.06304     0.00186     0.01642     0.03682
 PY  C   5   0.00443     0.00423     0.01859    -0.00005    -0.03178    -0.00607
 PZ  C   5   0.17510    -0.11211     0.05496     0.26779    -0.04948    -0.07101
  
  S  C   6   0.06077     0.07508     0.17460    -0.03649    -0.19316    -0.09373
 PX  C   6   0.02288     0.01009     0.02833     0.00921    -0.02027     0.01148
 PY  C   6   0.01313     0.00886     0.01546    -0.02053     0.00907    -0.07532
 PZ  C   6  -0.25774     0.17618    -0.03857    -0.26670     0.03470     0.06691
  
  S  C   7   0.16657     0.17499     0.14193     0.05465     0.08278     0.29655
 PX  C   7  -0.00065     0.00749    -0.07907     0.00189     0.12843    -0.00298
 PY  C   7   0.05139     0.05009    -0.00929     0.00972     0.09456     0.03690
 PZ  C   7   0.15261    -0.09744     0.00395    -0.12710     0.04161     0.03235
  
  S  C   8  -0.15344    -0.18333    -0.19961     0.11924    -0.06059     0.22611
 PX  C   8  -0.02264    -0.03144     0.04889     0.00729    -0.15150     0.02112
 PY  C   8   0.02910     0.01950     0.05999    -0.01504    -0.05665    -0.00345
 PZ  C   8  -0.13923     0.12188     0.08183     0.10442    -0.07676    -0.08045
  
  S  C   9   0.18892     0.22976     0.07471    -0.09565     0.34188    -0.17468
 PX  C   9   0.01770     0.01133    -0.07831     0.03362     0.07696     0.07265
 PY  C   9  -0.02698    -0.01496    -0.04192    -0.02104    -0.06114    -0.14766
 PZ  C   9   0.29945    -0.19281    -0.03681     0.03253     0.09907     0.00238
  
  S  C  10  -0.22592    -0.20534    -0.03542    -0.02152    -0.32236    -0.22529
 PX  C  10   0.01455     0.01145     0.08687    -0.02655     0.05481    -0.05828
 PY  C  10  -0.01464    -0.04251     0.01685     0.04620    -0.10228     0.14487
 PZ  C  10  -0.24943     0.24849    -0.00085    -0.02392    -0.02381     0.05808
  
  S  C  11   0.17291     0.18064    -0.12294     0.05038     0.10167     0.23899
 PX  C  11  -0.03058    -0.02058    -0.07843     0.01350    -0.12066    -0.04341
 PY  C  11   0.02505     0.04441    -0.07920     0.00717    -0.04950     0.00882
 PZ  C  11   0.11032    -0.12300     0.04088     0.14567     0.06357    -0.06228
  
  S  H  12  -0.08687    -0.09330     0.06245    -0.01623    -0.07155    -0.10000
  
  S  C  13  -0.14775    -0.21878     0.08580     0.07196    -0.18150     0.26404
 PX  C  13   0.00761    -0.00626     0.09463    -0.01548     0.10809     0.00596
 PY  C  13   0.03029     0.03893     0.03772    -0.02785     0.07145    -0.00809
 PZ  C  13  -0.14932     0.03908     0.00135    -0.15871    -0.09642     0.03230
  
  S  H  14  -0.08690    -0.09963    -0.09025    -0.01886    -0.05739    -0.14847
  
  S  H  15   0.03068     0.04022     0.08082     0.01670    -0.09873     0.07854
  
  S  H  16  -0.04610    -0.05460    -0.12020    -0.02642     0.12775    -0.08193
  
  S  H  17   0.04328     0.05848     0.12171    -0.03166    -0.11531    -0.05142
  
  S  H  18  -0.04173    -0.05167    -0.11927     0.02735     0.12957     0.08023
  
  S  H  19   0.08578     0.10240     0.12167    -0.06374     0.03694    -0.10501
  
  S  H  20   0.09119     0.13274    -0.06589    -0.03027     0.13306    -0.14084
  
  S  C  21   0.11563     0.16941    -0.27863     0.08496    -0.18699     0.13023
 PX  C  21  -0.04981    -0.04718     0.05445     0.00062    -0.01058    -0.04813
 PY  C  21   0.00606     0.00013    -0.01735    -0.00140    -0.03378    -0.01799
 PZ  C  21  -0.17947     0.12743     0.04943     0.22414     0.07167    -0.03497
  
  S  C  22  -0.07806    -0.11151     0.21671    -0.06152     0.21211    -0.02627
 PX  C  22   0.02999     0.01982    -0.03997    -0.00250    -0.02260    -0.01010
 PY  C  22   0.01161     0.02235    -0.02505     0.02200     0.00351     0.08964
 PZ  C  22   0.24537    -0.18343    -0.03570    -0.21305    -0.05094     0.02292
  
  S  C  23   0.03418     0.12090    -0.16276     0.03793    -0.15818    -0.16601
 PX  C  23  -0.02018    -0.00510     0.00109     0.03268    -0.01885     0.06045
 PY  C  23  -0.00742    -0.03031     0.04718    -0.02379     0.04801    -0.02716
 PZ  C  23  -0.26429     0.19693     0.06185     0.22167     0.08851    -0.00661
  
  S  C  24  -0.06018    -0.14115     0.17613     0.01242     0.11948     0.22381
 PX  C  24   0.02262     0.00381     0.00055    -0.03246     0.03193    -0.00531
 PY  C  24   0.00572     0.06040    -0.03730     0.01269     0.00227    -0.03336
 PZ  C  24   0.19846    -0.18551    -0.05025    -0.25834    -0.09572     0.01840
  
  S  H  25  -0.06342    -0.10144     0.17376    -0.05152     0.12475    -0.05638
  
  S  H  26   0.05137     0.06801    -0.13685     0.03801    -0.13736     0.02955
  
  S  H  27  -0.01772    -0.07718     0.09409    -0.02520     0.08646     0.11453
  
  S  H  28   0.03523     0.07204    -0.11171    -0.00332    -0.08945    -0.10807
  
  S  C  29  -0.16189    -0.22073     0.30132    -0.05951     0.11398    -0.13294
 PX  C  29   0.02032     0.01117     0.02995    -0.03810     0.06782    -0.03796
 PY  C  29   0.00067    -0.02161     0.05838     0.02548     0.05163     0.14252
 PZ  C  29   0.04372    -0.03810    -0.06338    -0.28218    -0.10929     0.07036
  
  S  C  30   0.12636     0.20827    -0.24018    -0.04007    -0.07021    -0.20087
 PX  C  30  -0.01160    -0.00874    -0.06641     0.03017    -0.10198     0.07346
 PY  C  30  -0.03376    -0.04287     0.05034    -0.03202     0.00055    -0.09684
 PZ  C  30  -0.02840     0.12564     0.02030     0.30226     0.11891    -0.07812




    ROOT NO.   55          56          57          58          59          60

             3.53631     3.63027     3.76396     3.94406     4.22884     4.26781
  
  
  S  C   1   0.03370    -0.12461     0.41147     0.10598     0.01180    -0.14257
 PX  C   1  -0.02554     0.02651    -0.06329     0.10116     0.01514    -0.12845
 PY  C   1   0.02107    -0.02846     0.05391    -0.06409    -0.01961     0.05091
 PZ  C   1   0.14456    -0.02464    -0.02383     0.03027     0.00571    -0.00133
  
  S  C   2   0.02196     0.04303    -0.12377    -0.25993    -0.03347     0.33454
 PX  C   2   0.02698    -0.04868     0.16915    -0.03878    -0.01253    -0.00150
 PY  C   2   0.01200    -0.02059     0.09540    -0.02017    -0.01115    -0.06987
 PZ  C   2  -0.16878     0.03195     0.02583    -0.05790    -0.01100     0.02240
  
  S  C   3  -0.04086     0.04834    -0.24447     0.21623     0.08559     0.00364
 PX  C   3  -0.03641     0.04720     0.01441     0.01145     0.03605     0.16088
 PY  C   3   0.01231     0.01712    -0.14418    -0.12509    -0.02933     0.10723
 PZ  C   3   0.25960    -0.04768    -0.06880     0.08765     0.02640     0.00349
  
  S  C   4  -0.05443    -0.00459     0.30651     0.09858     0.02231    -0.03525
 PX  C   4   0.05445    -0.06434     0.10116    -0.09684     0.00054     0.18192
 PY  C   4  -0.00137    -0.00965    -0.03187     0.13232     0.08019     0.09808
 PZ  C   4  -0.26083     0.05469    -0.00241    -0.05719    -0.00346     0.02456
  
  S  C   5   0.09256    -0.09535     0.03997    -0.21441    -0.00569     0.33714
 PX  C   5  -0.01566     0.03932    -0.17762     0.01278     0.00971    -0.04696
 PY  C   5  -0.01187     0.03607    -0.11864     0.01010     0.01435     0.04043
 PZ  C   5   0.17618    -0.03516    -0.01146     0.02557     0.00210    -0.00744
  
  S  C   6  -0.08710     0.16176    -0.39792     0.15784     0.04448    -0.11824
 PX  C   6   0.00367     0.00110     0.00157    -0.02480    -0.01685    -0.00099
 PY  C   6  -0.01007    -0.01879     0.12769     0.09737     0.00579    -0.14993
 PZ  C   6  -0.14940     0.03226    -0.00084    -0.01758    -0.00191    -0.00298
  
  S  C   7   0.05012    -0.12090     0.05508    -0.15322    -0.12731    -0.28471
 PX  C   7   0.01393    -0.02238    -0.11255     0.08861     0.03966    -0.05389
 PY  C   7   0.01059    -0.03307    -0.05648     0.05208     0.04497     0.02269
 PZ  C   7  -0.22998     0.05133     0.02620    -0.04473    -0.01303     0.00598
  
  S  C   8   0.02479     0.08636    -0.15512    -0.16258    -0.13954    -0.30065
 PX  C   8  -0.03840     0.04899     0.12741     0.02313     0.03338    -0.00515
 PY  C   8  -0.02802     0.01292     0.05420     0.00187    -0.02457    -0.09226
 PZ  C   8   0.22264    -0.05729     0.01191     0.05743     0.01185     0.01511
  
  S  C   9   0.05165    -0.13918    -0.14613     0.07253    -0.05914     0.10625
 PX  C   9   0.03315     0.01315    -0.09474    -0.08318    -0.08700    -0.12741
 PY  C   9   0.00773     0.07806     0.03284    -0.06514    -0.13367     0.04516
 PZ  C   9  -0.29211     0.07610     0.02040    -0.05158     0.00225     0.01389
  
  S  C  10  -0.03742     0.14391     0.15321    -0.05176    -0.09556     0.09139
 PX  C  10   0.00580    -0.07621    -0.01940    -0.06897    -0.17167    -0.02171
 PY  C  10  -0.01553     0.02059     0.06659    -0.07883    -0.00050    -0.12718
 PZ  C  10   0.30434    -0.09832    -0.05937     0.05718     0.02416    -0.02641
  
  S  C  11   0.03990     0.08644    -0.01726     0.12832     0.37485    -0.00655
 PX  C  11  -0.01307     0.11107     0.07459     0.02814     0.02324     0.02952
 PY  C  11   0.01896     0.07864     0.03311     0.01601    -0.05510     0.00879
 PZ  C  11  -0.23822     0.05710     0.03001    -0.04219    -0.03385     0.00617
  
  S  H  12  -0.02679    -0.05775     0.01368    -0.07504    -0.31968    -0.01484
  
  S  C  13  -0.10384    -0.11139     0.07412     0.13142     0.32428    -0.00341
 PX  C  13  -0.02234    -0.11754    -0.06145     0.08576    -0.06286     0.03710
 PY  C  13   0.00627    -0.06196    -0.03366     0.06372     0.05926     0.02334
 PZ  C  13   0.22550    -0.06678    -0.02202     0.03898    -0.01816    -0.00685
  
  S  H  14  -0.03034     0.08350    -0.04542     0.09438     0.12514     0.25123
  
  S  H  15  -0.01708     0.07093    -0.24501    -0.07328    -0.02016     0.04730
  
  S  H  16  -0.00862    -0.03629     0.08597     0.15740     0.00844    -0.28423
  
  S  H  17  -0.05331     0.05643    -0.01948     0.11175    -0.01625    -0.27491
  
  S  H  18   0.05891    -0.10910     0.26437    -0.12311    -0.04505     0.05636
  
  S  H  19  -0.01411    -0.06932     0.12170     0.10802     0.14283     0.28105
  
  S  H  20   0.07421     0.09431    -0.06167    -0.08735    -0.31073    -0.01366
  
  S  C  21  -0.07799    -0.00940     0.04540     0.26918    -0.25014     0.10578
 PX  C  21  -0.06553    -0.17444    -0.04585     0.01420    -0.07916     0.02417
 PY  C  21  -0.03503    -0.11450    -0.02995    -0.02569     0.03943    -0.01678
 PZ  C  21  -0.14592     0.03600     0.01463    -0.01493     0.00523     0.00058
  
  S  C  22   0.17094     0.36678     0.06447    -0.12125     0.08871    -0.04071
 PX  C  22  -0.00006     0.00205     0.00283    -0.01079    -0.01840    -0.00195
 PY  C  22   0.01921     0.11461     0.04157     0.14009    -0.10869     0.05545
 PZ  C  22   0.12488    -0.00257    -0.00605    -0.00117     0.00564    -0.00436
  
  S  C  23  -0.14425    -0.35638    -0.08700    -0.17220     0.08001    -0.06014
 PX  C  23  -0.04872    -0.06958    -0.01010     0.11057    -0.10597     0.04056
 PY  C  23   0.04415     0.08008     0.01051    -0.06706     0.03668    -0.02448
 PZ  C  23  -0.09967     0.08262     0.02466     0.00667     0.00511     0.00606
  
  S  C  24   0.01321     0.08248     0.01937     0.32250    -0.26638     0.11328
 PX  C  24   0.07458     0.15855     0.03864    -0.01240     0.01119     0.00261
 PY  C  24   0.02213     0.10855     0.03360    -0.00182    -0.03835     0.02052
 PZ  C  24   0.14959    -0.07171    -0.02377     0.00115    -0.01167    -0.00551
  
  S  H  25   0.05348    -0.00052    -0.03403    -0.18477     0.24674    -0.08857
  
  S  H  26  -0.11078    -0.25003    -0.04532     0.08119    -0.01914     0.02160
  
  S  H  27   0.08577     0.19998     0.05081     0.11193    -0.01391     0.03411
  
  S  H  28  -0.01259    -0.06264    -0.00999    -0.20303     0.23048    -0.08519
  
  S  C  29  -0.06048    -0.29958    -0.10984    -0.10599    -0.07588    -0.01964
 PX  C  29   0.06922     0.07619    -0.00498    -0.13082     0.15899    -0.05670
 PY  C  29  -0.03045    -0.08365    -0.02921     0.12002     0.10415     0.01552
 PZ  C  29   0.24861    -0.06672    -0.02666     0.04144    -0.00530    -0.00160
  
  S  C  30   0.11699     0.28312     0.07204    -0.21517     0.01669    -0.04244
 PX  C  30  -0.02042     0.00076     0.03570     0.00259     0.17618    -0.02073
 PY  C  30  -0.01787    -0.13777    -0.04854    -0.13303     0.04571    -0.04536
 PZ  C  30  -0.23631     0.11421     0.03741    -0.05846     0.02636     0.00054




    ROOT NO.   61          62          63          64          65          66

             5.22428     5.48626     5.53622     5.72540     6.15728     6.43113
  
  
  S  C   1   0.08066    -0.31471    -0.10880     0.09963    -0.06222     0.04482
 PX  C   1  -0.10170     0.09116     0.11033    -0.13727     0.11804    -0.08263
 PY  C   1   0.01280     0.27042     0.03267    -0.01751     0.01247    -0.01574
 PZ  C   1  -0.00555     0.00449     0.00458    -0.00467     0.00236    -0.00116
  
  S  C   2   0.13506    -0.06962    -0.12807     0.15840    -0.12483     0.08461
 PX  C   2   0.07406    -0.19092    -0.08418     0.08249    -0.05147     0.03962
 PY  C   2  -0.01990     0.05666     0.06288    -0.11112     0.17787    -0.17773
 PZ  C   2   0.00995    -0.00798    -0.00789     0.00802    -0.00338     0.00100
  
  S  C   3  -0.06139     0.04918     0.00259     0.04170    -0.14106     0.15723
 PX  C   3   0.15399     0.03556    -0.09290     0.07510     0.04465    -0.11614
 PY  C   3   0.01485    -0.04547    -0.04441     0.08314    -0.12817     0.14844
 PZ  C   3  -0.00071     0.00935    -0.00671     0.01397    -0.02403     0.02182
  
  S  C   4   0.07922     0.02567    -0.01513    -0.02613     0.11244    -0.15618
 PX  C   4  -0.09868    -0.05529     0.08558    -0.11347     0.10378    -0.08931
 PY  C   4  -0.10138     0.06329     0.04869    -0.01636    -0.12028     0.17792
 PZ  C   4  -0.01703    -0.01404     0.00736    -0.00528    -0.00785     0.01480
  
  S  C   5  -0.14393    -0.13286     0.10947    -0.14855     0.13019    -0.10328
 PX  C   5  -0.02870    -0.02713    -0.00901     0.03434    -0.09455     0.13396
 PY  C   5  -0.09140    -0.22972     0.05823    -0.10599     0.13064    -0.13244
 PZ  C   5  -0.00187     0.00616     0.00153    -0.00023    -0.00432     0.00817
  
  S  C   6  -0.10181    -0.26715     0.04040    -0.07153     0.05346    -0.02621
 PX  C   6   0.06051     0.30983    -0.01491     0.05472    -0.06265     0.04092
 PY  C   6   0.08928    -0.08763    -0.09550     0.11372    -0.09449     0.07233
 PZ  C   6   0.00032     0.00294    -0.00059     0.00148    -0.00176     0.00097
  
  S  C   7  -0.21511    -0.05956     0.11462    -0.08254    -0.06187     0.14346
 PX  C   7  -0.07366    -0.02176     0.00568     0.02243    -0.11074     0.13617
 PY  C   7   0.05209     0.02336    -0.07826     0.08200     0.02124    -0.19525
 PZ  C   7  -0.00362    -0.00097    -0.00188     0.00554    -0.00598     0.00094
  
  S  C   8   0.18057    -0.03934    -0.10401     0.08087     0.05399    -0.11844
 PX  C   8  -0.00681    -0.01555     0.04924    -0.10996     0.02435     0.15799
 PY  C   8   0.09833    -0.03364    -0.06938     0.06044     0.08605    -0.26223
 PZ  C   8  -0.00925     0.00511     0.00726    -0.00747     0.00050    -0.00137
  
  S  C   9  -0.01965     0.03654    -0.04989     0.14027    -0.04534    -0.17710
 PX  C   9   0.12844    -0.01601    -0.07412     0.04910     0.04226    -0.08574
 PY  C   9   0.09549    -0.00497     0.04745    -0.09969     0.09006     0.13498
 PZ  C   9  -0.00448     0.00039    -0.00134     0.00804    -0.00421    -0.00954
  
  S  C  10   0.02870     0.00561     0.07555    -0.09754     0.05246     0.10014
 PX  C  10  -0.16852     0.00169     0.03773     0.08058    -0.10840    -0.08126
[...]
  S   H   18   -0.0790    0.0496   -0.0288   -0.0038   -0.0751    0.2911    0.0028    0.0250
  S   H   19   -0.0767    0.2884    0.2104   -0.1037    0.1839    0.0577   -0.0064    0.1938
  S   H   20    0.2087    0.2146    0.2543    0.0002   -0.1070   -0.0152    0.0464   -0.2096
  S   C   21    0.1111    0.0319   -0.0116    0.0039    0.0012    0.0002    0.0758    0.0471
  Px  C   21    0.1464    0.0760   -0.2178   -0.2646    0.1079    0.0012   -0.0854   -0.0029
  Py  C   21   -0.1379   -0.0590    0.0757    0.0792   -0.0384    0.0005    0.2961    0.1818
  Pz  C   21   -0.0114   -0.0053    0.0111    0.0127   -0.0056   -0.0000    0.0075    0.0020
  S   C   22    0.0430    0.0113    0.0420    0.0437   -0.0183   -0.0003   -0.1035   -0.0559
  Px  C   22    0.0413    0.0160    0.0604    0.0548   -0.0301    0.0018    0.5122    0.1863
  Py  C   22    0.1010    0.0274   -0.0361   -0.0439    0.0157    0.0006   -0.0229    0.0636
  Pz  C   22    0.0040    0.0006   -0.0008   -0.0001    0.0005   -0.0001   -0.0412   -0.0127
  S   C   23   -0.0820   -0.0173    0.0471    0.0453   -0.0203    0.0001    0.0800   -0.0227
  Px  C   23   -0.1337   -0.0328   -0.0123   -0.0295    0.0043   -0.0019   -0.1733    0.1257
  Py  C   23   -0.0326   -0.0071    0.0598    0.0545   -0.0284   -0.0018   -0.4551   -0.0017
  Pz  C   23    0.0136    0.0027   -0.0002    0.0020   -0.0001    0.0000   -0.0164   -0.0066
  S   C   24   -0.1500   -0.0420   -0.0198   -0.0030    0.0053   -0.0000   -0.0617    0.0773
  Px  C   24    0.0861    0.0262   -0.0397   -0.0594    0.0171   -0.0010   -0.1654    0.1257
  Py  C   24   -0.2104   -0.0889   -0.2147   -0.2346    0.1145   -0.0023    0.2130   -0.2320
  Pz  C   24   -0.0195   -0.0070   -0.0186   -0.0247    0.0107   -0.0003    0.0260   -0.0309
  S   H   25   -0.1999   -0.0817    0.1456    0.1620   -0.0708   -0.0003    0.1703    0.0872
  S   H   26   -0.0614   -0.0225   -0.0510   -0.0422    0.0240   -0.0012   -0.3171   -0.1127
  S   H   27    0.1317    0.0307   -0.0437   -0.0283    0.0196    0.0019    0.3074   -0.0365
  S   H   28    0.2534    0.0892    0.1441    0.1393   -0.0749    0.0009   -0.1603    0.1552
  S   C   29    0.1633    0.0899   -0.1562   -0.2341    0.0766   -0.0006    0.0199    0.0260
  Px  C   29   -0.0891   -0.0251   -0.0447   -0.1115    0.0326    0.0018   -0.1102   -0.0269
  Py  C   29    0.1805    0.0968    0.0683    0.1605   -0.0466   -0.0021   -0.0456   -0.0071
  Pz  C   29   -0.0022   -0.0016    0.0029    0.0042   -0.0006   -0.0002    0.0040   -0.0007
  S   C   30   -0.1693   -0.0750   -0.1711   -0.2417    0.0927    0.0005    0.0040    0.0074
  Px  C   30   -0.0888   -0.0727    0.0406    0.0780   -0.0091   -0.0009    0.0774   -0.2441
  Py  C   30    0.1789    0.0920   -0.0491   -0.1456    0.0282   -0.0047    0.0772   -0.0917
  Pz  C   30   -0.0127   -0.0084   -0.0242   -0.0227    0.0126   -0.0001    0.0052   -0.0097


   Root No.      73        74        75        76        77        78        79        80

                73 A      74 A      75 A      76 A      77 A      78 A      79 A      80 A   

                 9.401     9.568    10.148    10.672    10.983    11.496    11.658    12.107
  
  S   C    1    0.0081    0.0734    0.0394   -0.0764   -0.0307    0.0192    0.0132    0.0009
  Px  C    1   -0.0237    0.2205   -0.0616   -0.1622    0.1690   -0.1501    0.0513    0.1553
  Py  C    1    0.0770    0.0990    0.2010   -0.1088   -0.2210    0.1618   -0.0008   -0.1120
  Pz  C    1   -0.0005   -0.0038   -0.0028    0.0034    0.0030   -0.0022    0.0000    0.0013
  S   C    2    0.0374   -0.0917    0.0723    0.0154   -0.0995    0.0672    0.0205   -0.0085
  Px  C    2   -0.0131    0.2214   -0.0042   -0.2115    0.0811   -0.0854    0.0856    0.1645
  Py  C    2    0.1349   -0.2167    0.2012   -0.0687   -0.2046    0.1131    0.1164    0.0890
  Pz  C    2    0.0007   -0.0015    0.0032   -0.0028   -0.0048    0.0036    0.0025    0.0018
  S   C    3   -0.0014   -0.0459    0.0082    0.0531   -0.0376    0.0280   -0.0014   -0.0099
  Px  C    3    0.1818   -0.1816    0.2639   -0.0319   -0.0662   -0.0568   -0.1853   -0.1848
  Py  C    3    0.0621   -0.0396    0.1202   -0.1550   -0.2207    0.1581    0.3109    0.3026
  Pz  C    3    0.0126   -0.0183    0.0209   -0.0047   -0.0211    0.0096    0.0103    0.0088
  S   C    4    0.0211   -0.0475    0.0160    0.0737    0.0125   -0.0230   -0.0042    0.0191
  Px  C    4   -0.0430   -0.1317   -0.2068   -0.0314    0.2215   -0.0935   -0.1218   -0.1775
  Py  C    4   -0.0470   -0.1224   -0.1128   -0.0226   -0.0903    0.1445    0.3380    0.3116
  Pz  C    4   -0.0078   -0.0160   -0.0226   -0.0090    0.0036    0.0076    0.0279    0.0203
  S   C    5    0.0141   -0.1059   -0.0475    0.0637    0.0752   -0.0564   -0.0196    0.0073
  Px  C    5   -0.0481   -0.0465   -0.1577   -0.1105    0.1528   -0.0466   -0.1083   -0.1997
  Py  C    5   -0.0586    0.3273    0.0632   -0.2107   -0.1135    0.1092    0.0127   -0.0973
  Pz  C    5   -0.0044   -0.0027   -0.0138   -0.0073    0.0136   -0.0043   -0.0090   -0.0161
  S   C    6   -0.0409    0.0725   -0.0625   -0.0581    0.0646   -0.0335   -0.0041   -0.0061
  Px  C    6   -0.1350    0.2276   -0.1597   -0.1456    0.1354   -0.0610   -0.0062   -0.0151
  Py  C    6    0.0027    0.1605    0.1279   -0.1878   -0.2101    0.1957   -0.0256   -0.2054
  Pz  C    6   -0.0061    0.0135   -0.0052   -0.0107    0.0026    0.0005    0.0007   -0.0023
  S   C    7   -0.0947    0.0476   -0.0803    0.0542   -0.0368    0.0708    0.0250    0.0241
  Px  C    7    0.1106   -0.1686    0.1793    0.0376   -0.0921    0.0189   -0.1853   -0.1890
  Py  C    7   -0.3251    0.1093   -0.1557    0.1826   -0.1464    0.2030   -0.0420   -0.0191
  Pz  C    7   -0.0048   -0.0123    0.0138    0.0121   -0.0176    0.0107   -0.0224   -0.0206
  S   C    8    0.0420    0.0334    0.0710    0.0866    0.0220   -0.0678   -0.0288   -0.0057
  Px  C    8    0.0816   -0.0574    0.0419    0.2407    0.0872   -0.1407    0.1556    0.1509
  Py  C    8   -0.0741   -0.1646   -0.1696   -0.0925    0.0023    0.0926    0.1466    0.1243
  Pz  C    8   -0.0076   -0.0142   -0.0163   -0.0085   -0.0018    0.0113    0.0140    0.0090
  S   C    9    0.0087    0.0334    0.0238   -0.0003    0.0004   -0.0143   -0.0261   -0.0025
  Px  C    9    0.1312   -0.0298    0.0976    0.2972    0.1278   -0.1973    0.1131    0.1320
  Py  C    9    0.0753    0.0214   -0.1311    0.1452    0.0746    0.3909   -0.2384    0.0238
  Pz  C    9   -0.0035    0.0015    0.0046   -0.0108   -0.0040   -0.0139    0.0073   -0.0033
  S   C   10    0.0018    0.0323   -0.0401    0.0095    0.0017    0.0181    0.0155    0.0050
  Px  C   10   -0.2824    0.0837    0.0395    0.2230   -0.2234   -0.1692    0.1363   -0.0505
  Py  C   10   -0.1726   -0.0030   -0.1434    0.1021   -0.1221    0.3997   -0.2129   -0.0790
  Pz  C   10   -0.0132   -0.0025    0.0014    0.0070   -0.0098    0.0066   -0.0029   -0.0024
  S   C   11    0.1242   -0.0016   -0.0668   -0.0768    0.0639    0.0646    0.0130   -0.0061
  Px  C   11   -0.1847    0.0883   -0.0139    0.1931   -0.1565   -0.1178    0.1654   -0.0580
  Py  C   11    0.3325    0.0505   -0.1840   -0.1105    0.0725    0.1024    0.1174   -0.0787
  Pz  C   11    0.0147   -0.0052    0.0000   -0.0095    0.0086    0.0054   -0.0078    0.0014
  S   H   12    0.2205   -0.0014   -0.0885   -0.0988    0.0818    0.0969    0.0163   -0.0299
  S   C   13   -0.0340    0.0424    0.0709   -0.0798   -0.0341   -0.0914   -0.0308    0.0144
  Px  C   13    0.0132    0.1555    0.1466    0.0384    0.0139   -0.0309   -0.2393    0.1549
  Py  C   13    0.1047   -0.0557   -0.1092    0.2425    0.0870    0.2019   -0.0642    0.0265
  Pz  C   13   -0.0052   -0.0003    0.0028   -0.0114   -0.0048   -0.0094    0.0043   -0.0031
  S   H   14   -0.2015    0.1050   -0.1324    0.0696   -0.0483    0.1068    0.0308    0.0450
  S   H   15    0.0375    0.1193    0.0895   -0.1090   -0.0646    0.0384    0.0187   -0.0067
  S   H   16    0.0713   -0.1677    0.1025    0.0175   -0.1284    0.0842    0.0415    0.0067
  S   H   17    0.0118   -0.1751   -0.0840    0.0712    0.1104   -0.0755   -0.0436   -0.0130
  S   H   18   -0.0799    0.1380   -0.0896   -0.0867    0.0738   -0.0323   -0.0047   -0.0100
  S   H   19    0.0588    0.0697    0.0989    0.0972    0.0238   -0.0934   -0.0338   -0.0275
  S   H   20   -0.0501    0.0678    0.0914   -0.0985   -0.0423   -0.1103   -0.0313    0.0316
  S   C   21   -0.0837   -0.0623    0.0763   -0.0229    0.0936    0.0534    0.0152    0.0051
  Px  C   21    0.1548   -0.0035   -0.1575   -0.1884   -0.0582   -0.0239   -0.1697    0.2179
  Py  C   21   -0.2241   -0.2278    0.1250   -0.1718    0.2045    0.1153   -0.0424    0.1266
  Pz  C   21   -0.0091   -0.0026    0.0083    0.0055    0.0049    0.0020    0.0077   -0.0096
  S   C   22    0.0129    0.0621    0.0398    0.0743    0.0168    0.0197    0.0144   -0.0104
  Px  C   22   -0.0053   -0.1802   -0.1419   -0.1735   -0.0700   -0.0609   -0.0244    0.0023
  Py  C   22   -0.1510   -0.1149    0.1874   -0.1338    0.2989    0.2019   -0.0926    0.2370
  Pz  C   22   -0.0074    0.0100    0.0223    0.0095    0.0213    0.0156   -0.0025    0.0116
  S   C   23    0.0656    0.0469   -0.0459    0.0616   -0.0468   -0.0079   -0.0014    0.0087
  Px  C   23   -0.1490   -0.1851   -0.0768   -0.2158   -0.1445   -0.1866    0.0557   -0.2040
  Py  C   23   -0.2091   -0.0647    0.2205   -0.0600    0.2258    0.1306   -0.0345    0.1080
  Pz  C   23   -0.0046    0.0056    0.0178    0.0062    0.0216    0.0174   -0.0072    0.0193
  S   C   24   -0.0439   -0.0815   -0.0733   -0.0479   -0.0916   -0.0623   -0.0193   -0.0090
  Px  C   24   -0.1664   -0.1880   -0.0112   -0.2282   -0.0434   -0.1251    0.0719   -0.2023
  Py  C   24    0.0796    0.1861    0.1925   -0.0037    0.1990    0.0724    0.1099   -0.1106
  Pz  C   24    0.0120    0.0269    0.0257    0.0066    0.0269    0.0129    0.0122   -0.0090
  S   H   25   -0.1547   -0.1062    0.1065   -0.0236    0.1173    0.0653    0.0337   -0.0053
  S   H   26    0.0006    0.1087    0.0843    0.1035    0.0395    0.0340    0.0174   -0.0051
  S   H   27    0.1618    0.0933   -0.0952    0.0989   -0.0769   -0.0136   -0.0013    0.0051
  S   H   28   -0.0892   -0.1495   -0.1020   -0.0657   -0.1190   -0.0796   -0.0386   -0.0010
  S   C   29   -0.0054   -0.0414    0.0092   -0.0575    0.0478    0.0232   -0.0020    0.0079
  Px  C   29    0.2244    0.0393   -0.2376   -0.1555   -0.1531   -0.0675   -0.1824    0.2124
  Py  C   29    0.1771    0.0554   -0.1304    0.0152    0.1355    0.1544    0.3376   -0.2392
  Pz  C   29   -0.0129   -0.0004    0.0122    0.0073    0.0009   -0.0023   -0.0030    0.0004
  S   C   30   -0.0234   -0.0315    0.0041   -0.0633   -0.0034   -0.0203    0.0140   -0.0285
  Px  C   30   -0.0194    0.1803    0.2286   -0.0339    0.0030   -0.1167   -0.2435    0.1462
  Py  C   30    0.0116    0.0443    0.1371   -0.0469    0.2634    0.1276    0.3165   -0.2951
  Pz  C   30   -0.0026    0.0039    0.0126   -0.0097    0.0106    0.0001    0.0063   -0.0102


   Root No.      81        82        83        84

                81 A      82 A      83 A      84 A   

                12.629    12.779    13.194    14.454
  
  S   C    1    0.0535    0.0382    0.0153    0.0420
  Px  C    1    0.3340   -0.0622    0.2152    0.1087
  Py  C    1   -0.1061    0.1475   -0.1211    0.0260
  Pz  C    1   -0.0004   -0.0020    0.0003   -0.0009
  S   C    2   -0.0228    0.0244   -0.0213    0.0221
  Px  C    2    0.3680   -0.0252    0.2176    0.1558
  Py  C    2    0.1392    0.0412    0.0500    0.1161
  Pz  C    2    0.0051    0.0022    0.0017    0.0050
  S   C    3   -0.0222   -0.0059    0.0052    0.0203
  Px  C    3    0.2293    0.0881    0.2661    0.2317
  Py  C    3    0.1948   -0.0188    0.0095    0.0959
  Pz  C    3    0.0217    0.0020    0.0159    0.0199
  S   C    4   -0.0054   -0.0257   -0.0003    0.0163
  Px  C    4    0.0558    0.3269   -0.1229    0.2288
  Py  C    4    0.0813    0.0887   -0.1953    0.1298
  Pz  C    4    0.0110    0.0303   -0.0273    0.0255
  S   C    5    0.0276   -0.0072    0.0190    0.0261
  Px  C    5    0.0400    0.3519   -0.1317    0.2037
  Py  C    5   -0.0449    0.1995   -0.1267    0.0628
  Pz  C    5    0.0016    0.0279   -0.0120    0.0157
  S   C    6    0.0538    0.0549    0.0004    0.0465
  Px  C    6    0.1071    0.1153   -0.0022    0.0903
  Py  C    6   -0.1476    0.3070   -0.2232    0.0771
  Pz  C    6    0.0041    0.0097   -0.0031    0.0057
  S   C    7   -0.0492   -0.0403   -0.0154    0.0038
  Px  C    7    0.1840    0.0573    0.2617    0.2492
  Py  C    7    0.0156   -0.0769    0.1006    0.1361
  Pz  C    7    0.0197    0.0019    0.0314    0.0299
  S   C    8   -0.0394   -0.0430    0.0063    0.0089
  Px  C    8   -0.0174    0.1531   -0.2090    0.2593
  Py  C    8    0.0965    0.1529   -0.1413    0.1334
  Pz  C    8    0.0093    0.0159   -0.0106    0.0124
  S   C    9   -0.0234   -0.0548   -0.0025   -0.0005
  Px  C    9   -0.0525    0.0888   -0.2014    0.2608
  Py  C    9    0.1495   -0.1769   -0.1369    0.1463
  Pz  C    9   -0.0055    0.0058    0.0093   -0.0094
  S   C   10   -0.0582   -0.0283    0.0020    0.0105
  Px  C   10   -0.1604    0.0566    0.2408    0.2638
  Py  C   10    0.1593   -0.1220    0.1067    0.1422
  Pz  C   10    0.0090    0.0017    0.0079    0.0092
  S   C   11   -0.0391   -0.0407   -0.0042   -0.0104
  Px  C   11   -0.2249    0.0185    0.2384    0.2639
  Py  C   11   -0.1834   -0.0918    0.1289    0.1276
  Pz  C   11    0.0104   -0.0005   -0.0102   -0.0112
  S   H   12   -0.0167   -0.0468   -0.0005   -0.0084
  S   C   13   -0.0374   -0.0364   -0.0083   -0.0078
  Px  C   13   -0.0108   -0.2016   -0.2443    0.2405
  Py  C   13    0.0841   -0.0601   -0.1178    0.1491
  Pz  C   13   -0.0033    0.0024    0.0056   -0.0078
  S   H   14   -0.0294   -0.0503   -0.0224   -0.0017
  S   H   15    0.0467    0.0547    0.0022    0.0424
  S   H   16   -0.0283    0.0238   -0.0342    0.0122
  S   H   17    0.0333   -0.0013    0.0289    0.0214
  S   H   18    0.0583    0.0616    0.0006    0.0454
  S   H   19   -0.0488   -0.0249    0.0173   -0.0007
  S   H   20   -0.0389   -0.0135   -0.0071   -0.0072
  S   C   21    0.0010    0.0190    0.0080   -0.0266
  Px  C   21   -0.2954   -0.0343    0.1209    0.1678
  Py  C   21   -0.1793    0.0249    0.1039    0.0513
  Pz  C   21    0.0114    0.0000   -0.0053   -0.0062
  S   C   22    0.0495    0.0374   -0.0053   -0.0378
  Px  C   22   -0.0859   -0.0908   -0.0049    0.0745
  Py  C   22   -0.2589    0.0975    0.1783    0.0567
  Pz  C   22   -0.0047    0.0130    0.0089   -0.0038
  S   C   23    0.0312    0.0583    0.0209   -0.0416
  Px  C   23    0.0446   -0.3032   -0.1944    0.1208
  Py  C   23   -0.1145    0.0394    0.0718    0.0271
  Pz  C   23   -0.0109    0.0174    0.0141   -0.0033
  S   C   24    0.0227   -0.0009   -0.0107   -0.0260
  Px  C   24    0.0083   -0.3351   -0.1959    0.1620
  Py  C   24   -0.0517   -0.1811   -0.0694    0.1328
  Pz  C   24   -0.0049   -0.0136   -0.0047    0.0118
  S   H   25   -0.0050    0.0190    0.0177   -0.0170
  S   H   26    0.0489    0.0489    0.0024   -0.0386
  S   H   27    0.0463    0.0647    0.0161   -0.0440
  S   H   28    0.0255   -0.0114   -0.0251   -0.0133
  S   C   29   -0.0028   -0.0059   -0.0138   -0.0257
  Px  C   29   -0.2979   -0.0418    0.1296    0.2025
  Py  C   29   -0.1689   -0.0875    0.1854    0.1412
  Pz  C   29    0.0141    0.0049   -0.0088   -0.0103
  S   C   30   -0.0065   -0.0240    0.0028   -0.0156
  Px  C   30   -0.0411   -0.2297   -0.2432    0.2232
  Py  C   30   -0.0363   -0.2158   -0.0280    0.1207
  Pz  C   30   -0.0032   -0.0191   -0.0092    0.0102


              NET ATOMIC CHARGES AND DIPOLE CONTRIBUTIONS

  ATOM NO.   TYPE          CHARGE      No. of ELECS.   s-Pop       p-Pop       
    1          C          -0.023597        4.0236     1.08375     2.93985
    2          C          -0.030088        4.0301     1.09039     2.93969
    3          C           0.010495        3.9895     1.07115     2.91835
    4          C           0.015610        3.9844     1.06430     2.92009
    5          C          -0.019438        4.0194     1.08246     2.93698
    6          C          -0.025305        4.0253     1.08808     2.93722
    7          C          -0.037366        4.0374     1.10031     2.93705
    8          C          -0.039420        4.0394     1.11105     2.92837
    9          C           0.006102        3.9939     1.08154     2.91236
   10          C           0.004216        3.9958     1.08200     2.91379
   11          C          -0.027037        4.0270     1.09383     2.93321
   12          H           0.021044        0.9790     0.97896
   13          C          -0.036949        4.0369     1.10309     2.93386
   14          H           0.032406        0.9676     0.96759
   15          H           0.017702        0.9823     0.98230
   16          H           0.023484        0.9765     0.97652
   17          H           0.016400        0.9836     0.98360
   18          H           0.029031        0.9710     0.97097
   19          H           0.024360        0.9756     0.97564
   20          H           0.032685        0.9673     0.96731
   21          C          -0.031290        4.0313     1.10912     2.92217
   22          C          -0.035325        4.0353     1.11148     2.92384
   23          C          -0.032302        4.0323     1.09567     2.93663
   24          C          -0.019532        4.0195     1.08178     2.93775
   25          H           0.025801        0.9742     0.97420
   26          H           0.028976        0.9710     0.97102
   27          H           0.026710        0.9733     0.97329
   28          H           0.023906        0.9761     0.97609
   29          C           0.005662        3.9943     1.07801     2.91633
   30          C           0.013061        3.9869     1.06866     2.91828
 DIPOLE           X         Y         Z       TOTAL
 POINT-CHG.    -0.105     0.065    -0.020     0.125
 HYBRID         0.061    -0.015    -0.101     0.119
 SUM           -0.044     0.050    -0.121     0.138


          ATOMIC ORBITAL ELECTRON POPULATIONS

     Atom    s        px        py        pz   
    1  C   1.08375   0.98692   0.95633   0.99660
    2  C   1.09039   0.97907   0.95160   1.00902
    3  C   1.07115   0.96732   0.97035   0.98068
    4  C   1.06430   0.96598   0.96827   0.98584
    5  C   1.08246   0.96717   0.96389   1.00592
    6  C   1.08808   0.93868   0.99926   0.99928
    7  C   1.10031   0.96887   0.95296   1.01522
    8  C   1.11105   0.97157   0.94270   1.01410
    9  C   1.08154   0.97439   0.96244   0.97552
   10  C   1.08200   0.97056   0.95982   0.98341
   11  C   1.09383   0.96768   0.95586   1.00967
   12  H   0.97896
   13  C   1.10309   0.97178   0.94284   1.01924
   14  H   0.96759
   15  H   0.98230
   16  H   0.97652
   17  H   0.98360
   18  H   0.97097
   19  H   0.97564
   20  H   0.96731
   21  C   1.10912   0.96201   0.95206   1.00810
   22  C   1.11148   0.94043   0.98535   0.99806
   23  C   1.09567   0.97933   0.95327   1.00403
   24  C   1.08178   0.97445   0.96520   0.99811
   25  H   0.97420
   26  H   0.97102
   27  H   0.97329
   28  H   0.97609
   29  C   1.07801   0.95894   0.96712   0.99027
   30  C   1.06866   0.97492   0.96940   0.97396

 **********************
 *                    *
 * JOB ENDED NORMALLY *
 *                    *
 **********************



 TOTAL JOB TIME:             2.53 SECONDS

 == MOPAC DONE ==


          MOPAC Job: "./tetraceneTraj/tetracene_1517.mop" ended normally on Feb 15, 2023, at 11:34.

rm: cannot remove ./tetraceneTraj/tetracene_1517.cim: No such file or directory
rm: cannot remove ./tetraceneTraj/tetracene_1517.end: No such file or directory
rm: cannot remove ./tetraceneTraj/tetracene_1517.log: No such file or directory
rm: cannot remove ./tetraceneTraj/tetracene_1517.temp: No such file or directory
rm: cannot remove ./tetraceneTraj/tetracene_1517.ple: No such file or directory
rm: cannot remove ./tetraceneTraj/tetracene_1517.sts: No such file or directory
