 *******************************************************************************
 ** Site#:    0         For non-commercial use only    Version 20.173L 64BITS **
 *******************************************************************************
 ** Cite this program as: MOPAC2016, Version: 20.173L, James J. P. Stewart,   **
 ** Stewart Computational Chemistry, web-site: HTTP://OpenMOPAC.net.          **
 *******************************************************************************
 **                                                                           **
 **                                MOPAC2016                                  **
 **                                                                           **
 *******************************************************************************

                              INDO CALCULATION RESULTS

 *******************************************************************************
 *  CALCULATION DONE:                                Wed Feb 15 11:25:44 2023  *
 *  INDO       - The INDO Hamiltonian to be used
 *
 *
 *
 *                 CHARGE ON SYSTEM = 0
 *
 *
 *
 *  C.I.=(N,M) - 3 DOUBLY FILLED LEVELS USED IN A C.I. INVOLVING 6 M.O.'S
 *  T=         - A TIME OF 172800.0 SECONDS REQUESTED
 *  DUMP=N     - RESTART FILE WRITTEN EVERY 7200.0 SECONDS REQUESTED
 *  RELSCF     - DEFAULT SCF CRITERION MULTIPLIED BY 0.0000
 *              (DEFAULT SCF CRITERION = 0.00010)
 *  ALLVEC     - PRINT ALL EIGENVECTORS
 **********
 *  WARNING: Specified print options may not behave as expected with INDO
 **********
 *******************************************************************************
INDO C.I.=(6,3) AllVEC CHARGE=0 RELSCF=0.000001


   ATOM   CHEMICAL          X               Y               Z
  NUMBER   SYMBOL      (ANGSTROMS)     (ANGSTROMS)     (ANGSTROMS)
 
     1       C         18.46725738  *  19.50721476  *  22.31773760  *
     2       C         19.86377545  *  19.48935674  *  22.30938750  *
     3       C         20.69989307  *  20.66959236  *  22.36783615  *
     4       C         19.97703589  *  21.93179657  *  22.42383876  *
     5       C         18.52425676  *  21.94462265  *  22.46973806  *
     6       C         17.77598617  *  20.80041393  *  22.40674486  *
     7       C         22.12541080  *  20.64035325  *  22.48601502  *
     8       C         20.72671974  *  23.16954153  *  22.44387577  *
     9       C         22.14403898  *  23.14006130  *  22.51203715  *
    10       C         22.83733056  *  21.84762963  *  22.50127727  *
    11       C         24.29131898  *  21.83315210  *  22.57024482  *
    12       H         24.74717097  *  20.85441428  *  22.54659853  *
    13       C         22.94120214  *  24.34061259  *  22.56626807  *
    14       H         22.70173955  *  19.70490489  *  22.51894740  *
    15       H         17.90832586  *  18.57725878  *  22.19122834  *
    16       H         20.34962616  *  18.48939497  *  22.19124505  *
    17       H         18.03740398  *  22.93901658  *  22.44929806  *
    18       H         16.68963757  *  20.83709395  *  22.28337604  *
    19       H         20.17252703  *  24.12681926  *  22.45956930  *
    20       H         22.35389135  *  25.31149876  *  22.59684610  *
    21       C         26.49465320  *  23.03568340  *  22.60161516  *
    22       C         27.19280961  *  24.23119249  *  22.63426250  *
    23       C         26.47298757  *  25.51617380  *  22.60717849  *
    24       C         25.08730471  *  25.54268724  *  22.61509598  *
    25       H         26.98730708  *  22.07302936  *  22.63666466  *
    26       H         28.30981964  *  24.25472338  *  22.65445655  *
    27       H         27.10663199  *  26.44351526  *  22.58249951  *
    28       H         24.58364941  *  26.47671119  *  22.68726840  *
    29       C         25.05088676  *  23.02457250  *  22.58128730  *
    30       C         24.33152256  *  24.32791982  *  22.60252295  *
 


          CARTESIAN COORDINATES 

    NO.       ATOM           X           Y           Z

     1         C         18.4673     19.5072     22.3177
     2         C         19.8638     19.4894     22.3094
     3         C         20.6999     20.6696     22.3678
     4         C         19.9770     21.9318     22.4238
     5         C         18.5243     21.9446     22.4697
     6         C         17.7760     20.8004     22.4067
     7         C         22.1254     20.6404     22.4860
     8         C         20.7267     23.1695     22.4439
     9         C         22.1440     23.1401     22.5120
    10         C         22.8373     21.8476     22.5013
    11         C         24.2913     21.8332     22.5702
    12         H         24.7472     20.8544     22.5466
    13         C         22.9412     24.3406     22.5663
    14         H         22.7017     19.7049     22.5189
    15         H         17.9083     18.5773     22.1912
    16         H         20.3496     18.4894     22.1912
    17         H         18.0374     22.9390     22.4493
    18         H         16.6896     20.8371     22.2834
    19         H         20.1725     24.1268     22.4596
    20         H         22.3539     25.3115     22.5968
    21         C         26.4947     23.0357     22.6016
    22         C         27.1928     24.2312     22.6343
    23         C         26.4730     25.5162     22.6072
    24         C         25.0873     25.5427     22.6151
    25         H         26.9873     22.0730     22.6367
    26         H         28.3098     24.2547     22.6545
    27         H         27.1066     26.4435     22.5825
    28         H         24.5836     26.4767     22.6873
    29         C         25.0509     23.0246     22.5813
    30         C         24.3315     24.3279     22.6025

           Empirical Formula: C18 H12  =    30 atoms



      MOLECULAR POINT GROUP   :   C2  


      RHF CALCULATION, NO. OF DOUBLY OCCUPIED LEVELS = 42

 WARNING: INDO only performs single-point calculations
  SCF CRITERION =    0.1000E-09

 Summary of symmetry occupancy in each shell:

 SHELL     
    1   42
    v   42
 TOTAL  84




    ROOT NO.    1           2           3           4           5           6

           -44.58546   -42.98268   -40.40851   -36.80838   -35.74221   -34.12517
  
  
  S  C   1   0.11873    -0.21203    -0.26419    -0.23369     0.07949    -0.12434
 PX  C   1   0.03234    -0.05082    -0.04552    -0.00712     0.03663    -0.08280
 PY  C   1   0.04392    -0.07519    -0.08516    -0.06163    -0.00998     0.04214
 PZ  C   1   0.00191    -0.00308    -0.00307    -0.00156    -0.00118     0.00363
  
  S  C   2   0.15322    -0.23627    -0.21812    -0.09183     0.15344    -0.28451
 PX  C   2  -0.00389     0.02812     0.07526     0.10989     0.02101    -0.03709
 PY  C   2   0.06170    -0.08686    -0.06085     0.00412     0.01131    -0.01380
 PZ  C   2   0.00347    -0.00451    -0.00232     0.00161     0.00059     0.00003
  
  S  C   3   0.26998    -0.29267    -0.05799     0.19340     0.12989    -0.22254
 PX  C   3   0.00093     0.05904     0.14555     0.12962     0.05403    -0.05303
 PY  C   3   0.05688    -0.03105     0.05946     0.09070    -0.08461     0.12820
 PZ  C   3   0.00759    -0.00539     0.00540     0.01141     0.00150    -0.00077
  
  S  C   4   0.26933    -0.29833    -0.07635     0.15826    -0.16292     0.20535
 PX  C   4   0.04646     0.00811     0.13213     0.15670     0.01147    -0.07773
 PY  C   4  -0.02933     0.06329     0.08296     0.04455    -0.10853     0.13679
 PZ  C   4   0.00038     0.00110     0.00328     0.00243    -0.00349     0.00496
  
  S  C   5   0.15481    -0.24158    -0.23151    -0.12588    -0.13074     0.27885
 PX  C   5   0.04744    -0.05501    -0.00974     0.05875    -0.03731     0.03063
 PY  C   5  -0.03780     0.07249     0.09785     0.08913    -0.03514     0.03217
 PZ  C   5  -0.00461     0.00800     0.00915     0.00652     0.00172    -0.00502
  
  S  C   6   0.12060    -0.21596    -0.27100    -0.24780    -0.01958     0.11354
 PX  C   6   0.05483    -0.09146    -0.09722    -0.05688    -0.00023     0.00803
 PY  C   6   0.00393    -0.00350     0.00419     0.01726    -0.04388     0.09481
 PZ  C   6  -0.00154     0.00310     0.00466     0.00544    -0.00177     0.00266
  
  S  C   7   0.23958    -0.13592     0.16954     0.24063     0.26572    -0.22246
 PX  C   7  -0.02863     0.06831     0.03871    -0.08346     0.04339     0.05961
 PY  C   7   0.08275    -0.02279     0.09018     0.06010     0.00560     0.03211
 PZ  C   7  -0.00312     0.00436     0.00033    -0.00712    -0.00202     0.00724
  
  S  C   8   0.23178    -0.13774     0.14602     0.19320    -0.30745     0.23719
 PX  C   8   0.05012     0.02006     0.09559     0.00474    -0.02525    -0.05817
 PY  C   8  -0.06980     0.06989    -0.01669    -0.10179    -0.00682    -0.02966
 PZ  C   8   0.00299     0.00008     0.00413     0.00044    -0.00513     0.00168
  
  S  C   9   0.32409    -0.00857     0.29672    -0.02712    -0.23015     0.05774
 PX  C   9   0.02631     0.08513     0.02071    -0.18617     0.08005    -0.07390
 PY  C   9  -0.05160     0.04881    -0.04867    -0.11177    -0.11994    -0.00463
 PZ  C   9  -0.00108     0.00388    -0.00114    -0.00909     0.00123    -0.00277
  
  S  C  10   0.33058    -0.01231     0.31071     0.00991     0.21240    -0.03951
 PX  C  10  -0.02882     0.08629    -0.02668    -0.18591     0.09382     0.04037
 PY  C  10   0.04375     0.04605     0.03317    -0.11672    -0.13100     0.06309
 PZ  C  10   0.00211     0.00349     0.00222    -0.00836     0.00293     0.00190
  
  S  C  11   0.23711     0.13030     0.15074    -0.21311     0.33719     0.13480
 PX  C  11  -0.04777     0.02563    -0.09473     0.00999    -0.00334     0.08592
 PY  C  11   0.06677     0.06896     0.00743    -0.10322    -0.01096     0.04644
 PZ  C  11  -0.00307     0.00007    -0.00417     0.00143    -0.00471     0.00101
  
  S  H  12   0.07590     0.03715     0.04989    -0.05164     0.17459     0.06195
  
  S  C  13   0.23867     0.13984     0.13619    -0.25991    -0.30408    -0.13465
 PX  C  13   0.03551     0.07586    -0.04407    -0.07816     0.01572    -0.09327
 PY  C  13  -0.07613    -0.01527    -0.08494     0.06755    -0.00724    -0.05412
 PZ  C  13  -0.00113     0.00137    -0.00296    -0.00099     0.00058    -0.00374
  
  S  H  14   0.07313    -0.03714     0.05298     0.06565     0.14247    -0.10532
  
  S  H  15   0.03013    -0.05690    -0.07888    -0.08413     0.03314    -0.05716
  
  S  H  16   0.04422    -0.06639    -0.05828    -0.02014     0.07433    -0.13902
  
  S  H  17   0.04704    -0.07055    -0.06298    -0.03145    -0.07387     0.14502
  
  S  H  18   0.03084    -0.05842    -0.08167    -0.09040    -0.00987     0.05227
  
  S  H  19   0.06894    -0.04081     0.03776     0.04461    -0.14797     0.11792
  
  S  H  20   0.07075     0.03912     0.03811    -0.07013    -0.15484    -0.06181
  
  S  C  21   0.15656     0.23616    -0.20739     0.13567     0.20725     0.29202
 PX  C  21  -0.05031    -0.05827     0.01451     0.05293    -0.04361    -0.02691
 PY  C  21   0.03711     0.06968    -0.08819     0.09493    -0.03104    -0.01614
 PZ  C  21   0.00035     0.00100    -0.00173     0.00231     0.00049     0.00162
  
  S  C  22   0.12284     0.21261    -0.24517     0.26247     0.06819     0.13575
 PX  C  22  -0.05622    -0.09096     0.08963    -0.06297    -0.00752    -0.01075
 PY  C  22  -0.00503    -0.00475    -0.00356     0.01894    -0.06191    -0.09706
 PZ  C  22  -0.00159    -0.00268     0.00289    -0.00270    -0.00078    -0.00142
  
  S  C  23   0.12429     0.21504    -0.24754     0.25465    -0.08274    -0.11474
 PX  C  23  -0.03504    -0.05384     0.04591    -0.01068     0.05746     0.09137
 PY  C  23  -0.04505    -0.07462     0.07779    -0.06621    -0.02356    -0.04698
 PZ  C  23   0.00043     0.00085    -0.00116     0.00138    -0.00039    -0.00053
  
  S  C  24   0.16264     0.24546    -0.21490     0.11037    -0.21325    -0.28995
 PX  C  24   0.00341     0.02645    -0.06653     0.11691     0.04182     0.03814
 PY  C  24  -0.06341    -0.08729     0.05833     0.00053     0.01681     0.01219
 PZ  C  24  -0.00040    -0.00021    -0.00048     0.00107    -0.00083    -0.00151
  
  S  H  25   0.04850     0.07017    -0.05681     0.03428     0.10844     0.14529
  
  S  H  26   0.03004     0.05506    -0.07089     0.09233     0.02761     0.05788
  
  S  H  27   0.03022     0.05541    -0.07129     0.08910    -0.03238    -0.04789
  
  S  H  28   0.05145     0.07556    -0.06289     0.02499    -0.11078    -0.14882
  
  S  C  29   0.27084     0.29122    -0.07005    -0.15572     0.21095     0.19734
 PX  C  29  -0.04512     0.00996    -0.12013     0.16643     0.03888     0.08967
 PY  C  29   0.02939     0.06410    -0.08182     0.05433    -0.12531    -0.09934
 PZ  C  29   0.00036     0.00194    -0.00332     0.00243    -0.00027     0.00111
  
  S  C  30   0.27692     0.30036    -0.07692    -0.18325    -0.18391    -0.19889
 PX  C  30  -0.00140     0.05652    -0.13160     0.14862     0.07550     0.04156
 PY  C  30  -0.04988    -0.01976    -0.06257     0.09808    -0.11388    -0.13469
 PZ  C  30  -0.00301    -0.00173    -0.00248     0.00489     0.00106     0.00007




    ROOT NO.    7           8           9          10          11          12

           -31.91481   -31.32620   -28.70747   -28.22981   -26.97454   -26.04067
  
  
  S  C   1   0.15026     0.28667     0.18355    -0.25462    -0.01620     0.20446
 PX  C   1   0.12100    -0.06675     0.11017     0.14064     0.05854     0.05941
 PY  C   1  -0.07656     0.01552    -0.10036     0.02035    -0.07543    -0.11495
 PZ  C   1  -0.00654    -0.00251    -0.00934     0.00523    -0.00562    -0.01094
  
  S  C   2   0.31082    -0.01000     0.17335     0.10954     0.13104     0.02032
 PX  C   2  -0.00898    -0.14575    -0.12966     0.11377     0.04618    -0.19821
 PY  C   2  -0.00690    -0.08826    -0.06996     0.10614    -0.08515    -0.10826
 PZ  C   2  -0.00322    -0.00580    -0.00836     0.00539    -0.00641    -0.00899
  
  S  C   3   0.13400    -0.24377    -0.11582     0.12654    -0.08852    -0.19051
 PX  C   3  -0.06419     0.04335    -0.14175    -0.16035     0.04529    -0.05898
 PY  C   3  -0.09148    -0.02274     0.01710    -0.08292    -0.17564     0.11529
 PZ  C   3  -0.00602    -0.00428    -0.01062    -0.00647    -0.00726    -0.00238
  
  S  C   4  -0.05947    -0.26841     0.12353     0.10996    -0.06251     0.18394
 PX  C   4   0.11400     0.01996     0.02996    -0.15956    -0.12999    -0.04481
 PY  C   4  -0.03414     0.03659     0.11405    -0.10935     0.15104     0.12714
 PZ  C   4  -0.00336     0.00089     0.00060    -0.00254     0.00503     0.00355
  
  S  C   5  -0.30216    -0.07111    -0.14504     0.13908     0.10887    -0.02542
 PX  C   5   0.04830    -0.14684     0.14896     0.12050     0.00353     0.18926
 PY  C   5   0.01423    -0.07604     0.07912     0.02314     0.11067     0.10789
 PZ  C   5   0.00642    -0.00152     0.00414    -0.00117     0.00104     0.00271
  
  S  C   6  -0.21014     0.25026    -0.21962    -0.21180    -0.07083    -0.19185
 PX  C   6   0.00177    -0.02471     0.03307     0.09004    -0.01569     0.05275
 PY  C   6  -0.12699    -0.09154    -0.12319     0.13423     0.05798    -0.11538
 PZ  C   6  -0.00269    -0.01103    -0.00257     0.01470     0.00364    -0.00248
  
  S  C   7  -0.15375     0.00148    -0.24425    -0.11164     0.16384    -0.02080
 PX  C   7  -0.14575     0.12838     0.06361    -0.01169     0.13317     0.18438
 PY  C   7  -0.07157     0.07443     0.01801    -0.07861    -0.14594     0.11266
 PZ  C   7  -0.00697     0.00741     0.00646     0.00064     0.00271     0.01251
  
  S  C   8   0.12906     0.02438     0.22790    -0.16065     0.16731     0.01408
 PX  C   8   0.11188     0.16588    -0.05798    -0.07176    -0.08426    -0.19725
 PY  C   8   0.05159     0.08485    -0.02658     0.03269     0.17047    -0.12104
 PZ  C   8   0.00456     0.00640     0.00022    -0.00222     0.00451    -0.00643
  
  S  C   9   0.19104     0.27007     0.00449     0.00564    -0.08785    -0.16928
 PX  C   9  -0.05582     0.00665    -0.09367     0.19973    -0.10017     0.06402
 PY  C   9   0.12302    -0.00521    -0.04885     0.08737     0.22571    -0.13126
 PZ  C   9  -0.00103    -0.00074    -0.00488     0.01014     0.00356     0.00191
  
  S  C  10  -0.22430     0.21547     0.00421     0.01443    -0.07769     0.17534
 PX  C  10  -0.07422    -0.02359     0.12520     0.16726     0.13045     0.04668
 PY  C  10   0.13743     0.03787     0.06621     0.10296    -0.22162    -0.08425
 PZ  C  10  -0.00381     0.00283     0.00475     0.00795     0.00155     0.00498
  
  S  C  11  -0.16527    -0.02747     0.26269     0.09971     0.16261    -0.04899
 PX  C  11   0.12259    -0.13836     0.04480    -0.10077     0.04277    -0.20401
 PY  C  11   0.08116    -0.07285     0.02821     0.03986    -0.19631    -0.07932
 PZ  C  11   0.00629    -0.00425    -0.00219    -0.00333    -0.00362    -0.00496
  
  S  H  12  -0.09439    -0.00985     0.12183     0.00279     0.21229    -0.03424
  
  S  C  13   0.16122     0.02899    -0.23107     0.13250     0.19995    -0.01595
 PX  C  13  -0.09537    -0.16308    -0.06080    -0.00919    -0.09873     0.21470
 PY  C  13  -0.05829    -0.08896    -0.03471    -0.10235     0.15990     0.07530
 PZ  C  13  -0.00408    -0.00660    -0.00318    -0.00156     0.00294     0.00807
  
  S  H  14  -0.08406     0.00251    -0.10412    -0.02035     0.20894    -0.01058
  
  S  H  15   0.07604     0.15274     0.10945    -0.17960     0.01234     0.14643
  
  S  H  16   0.14878     0.00385     0.08608     0.02706     0.12759     0.01694
  
  S  H  17  -0.14911    -0.03634    -0.06383     0.04873     0.12022    -0.00374
  
  S  H  18  -0.10606     0.13518    -0.13090    -0.15586    -0.02595    -0.13192
  
  S  H  19   0.05377     0.00616     0.11063    -0.04138     0.20659     0.00238
  
  S  H  20   0.07502     0.01758    -0.10379     0.01328     0.22041    -0.03840
  
  S  C  21   0.25300    -0.01539    -0.18254    -0.13856     0.13179     0.00559
 PX  C  21   0.01135     0.13944    -0.12250     0.13837     0.07612     0.16900
 PY  C  21   0.00847     0.08402    -0.07699     0.06245    -0.09209     0.13747
 PZ  C  21   0.00241     0.00221    -0.00446     0.00087     0.00230     0.00403
  
  S  C  22   0.12605     0.27719    -0.18307     0.26471     0.02350     0.20137
 PX  C  22  -0.00140     0.01833    -0.02071     0.08697     0.05705     0.04235
 PY  C  22  -0.11821     0.06945     0.15008     0.13618    -0.08066    -0.09369
 PZ  C  22  -0.00125    -0.00175     0.00120    -0.00068     0.00124    -0.00067
  
  S  C  23  -0.17217     0.24849     0.22815     0.23542    -0.04437    -0.19093
 PX  C  23   0.09173     0.08693    -0.09183     0.17595    -0.01083     0.07912
 PY  C  23  -0.05716    -0.03271     0.09685    -0.01175     0.05630    -0.12890
 PZ  C  23  -0.00078     0.00127     0.00057     0.00074     0.00062     0.00020
  
  S  C  24  -0.25338    -0.05706     0.16337    -0.15392     0.09812    -0.07316
 PX  C  24  -0.03751     0.13494     0.15147     0.09884    -0.09431    -0.17319
 PY  C  24  -0.02411     0.07227     0.08746     0.07278     0.08587    -0.13524
 PZ  C  24  -0.00214     0.00044     0.00235    -0.00120     0.00382    -0.00221
  
  S  H  25   0.12108    -0.01403    -0.08021    -0.06577     0.14329    -0.02663
  
  S  H  26   0.05862     0.14447    -0.10003     0.18200     0.04388     0.12548
  
  S  H  27  -0.08028     0.13118     0.12780     0.16678     0.00128    -0.13240
  
  S  H  28  -0.12668    -0.02861     0.08277    -0.06891     0.12927    -0.06140
  
  S  C  29   0.09551    -0.23975     0.10519    -0.12355    -0.12827    -0.15490
 PX  C  29   0.09359     0.00586    -0.06998    -0.16886     0.11077    -0.06504
 PY  C  29   0.00837    -0.01836    -0.13321    -0.05484    -0.15665     0.15669
 PZ  C  29   0.00245    -0.00216    -0.00251    -0.00441    -0.00080    -0.00000
  
  S  C  30  -0.03794    -0.23999    -0.13278    -0.09783    -0.08071     0.20060
 PX  C  30  -0.05485    -0.03092     0.12180    -0.15695    -0.10734    -0.05157
 PY  C  30  -0.09180     0.00332    -0.02439    -0.10542     0.19647     0.05702
 PZ  C  30  -0.00214     0.00020     0.00230    -0.00418     0.00352    -0.00103




    ROOT NO.   13          14          15          16          17          18

           -25.20849   -23.90782   -22.93119   -21.55111   -20.50563   -19.36165
  
  
  S  C   1  -0.02550     0.12795     0.00158     0.17213    -0.04676    -0.00381
 PX  C   1   0.02692    -0.23063    -0.00977    -0.02072     0.22444     0.17202
 PY  C   1  -0.13148     0.00260     0.20187    -0.10315    -0.11048     0.20632
 PZ  C   1  -0.01114    -0.00305     0.01950    -0.00742    -0.00780     0.02967
  
  S  C   2   0.15739    -0.18113    -0.11631    -0.14119     0.10596     0.02475
 PX  C   2   0.10188     0.02993    -0.06328    -0.17755    -0.14057    -0.14578
 PY  C   2  -0.16716     0.00987     0.21184    -0.05834    -0.14127     0.07101
 PZ  C   2  -0.01259     0.00382     0.01903     0.00284    -0.01383     0.01723
  
  S  C   3  -0.07320     0.11096     0.00755    -0.08972    -0.06984    -0.14832
 PX  C   3   0.16538     0.14100    -0.16136     0.11514    -0.00964     0.00848
 PY  C   3  -0.20762     0.09456     0.02620     0.12488     0.13967    -0.08799
 PZ  C   3  -0.00525     0.01213     0.00113     0.01880    -0.00061     0.00720
  
  S  C   4  -0.13012     0.10105     0.01888     0.09719    -0.05721    -0.15439
 PX  C   4  -0.07625     0.16523    -0.05845    -0.17124     0.09215    -0.07805
 PY  C   4   0.21694     0.06943    -0.14666    -0.01529    -0.08389     0.03975
 PZ  C   4   0.00744    -0.00151    -0.00406     0.01031    -0.00147     0.00943
  
  S  C   5   0.15452    -0.18367    -0.12616     0.11576     0.12396     0.01248
 PX  C   5  -0.10949     0.01561     0.13241     0.17514    -0.18197    -0.01588
 PY  C   5   0.16096     0.01752    -0.17839     0.08802    -0.03118    -0.18368
 PZ  C   5   0.00179     0.00095    -0.00239     0.00412     0.00116     0.00317
  
  S  C   6   0.00213     0.13170     0.00658    -0.16531    -0.05412     0.00425
 PX  C   6  -0.10123    -0.13166     0.15730     0.12789     0.04380     0.26643
 PY  C   6   0.11208    -0.19227    -0.12033    -0.06946     0.24815     0.02961
 PZ  C   6   0.00218    -0.01954     0.00061     0.00509     0.01925     0.02275
  
  S  C   7   0.15409     0.09297     0.05442     0.21631    -0.06669     0.15108
 PX  C   7  -0.01085    -0.13887     0.17773     0.06038     0.02279     0.13253
 PY  C   7  -0.13463    -0.08447    -0.04285     0.01379     0.21829    -0.02547
 PZ  C   7  -0.00585    -0.00991     0.01316     0.00640     0.00071     0.01309
  
  S  C   8   0.13594     0.10749     0.07379    -0.20637    -0.07983     0.16533
 PX  C   8  -0.07932    -0.13845     0.07076    -0.06659     0.20125     0.07245
 PY  C   8   0.09266    -0.06558     0.16367    -0.03988    -0.10211     0.13886
 PZ  C   8   0.00237    -0.00620     0.00521     0.00140     0.00297     0.00739
  
  S  C   9  -0.00602    -0.22132    -0.00974    -0.00343     0.00823     0.00410
 PX  C   9  -0.01144    -0.06249    -0.11878     0.17780    -0.17040    -0.15808
 PY  C   9   0.04020     0.08107     0.21047     0.10192    -0.08852    -0.08616
 PZ  C   9   0.00041    -0.00027     0.00104     0.01377    -0.00961    -0.00841
  
  S  C  10  -0.04156    -0.23016    -0.03385    -0.00596     0.00299     0.00007
 PX  C  10   0.00785     0.03339     0.11296    -0.16352    -0.18115    -0.13606
 PY  C  10  -0.01428    -0.08958    -0.19931    -0.09366    -0.09651    -0.06909
 PZ  C  10  -0.00048    -0.00454     0.00384    -0.00296    -0.00977    -0.00140
  
  S  C  11  -0.11013     0.11760     0.05842    -0.21603     0.06001    -0.14606
 PX  C  11  -0.04866     0.16886    -0.05771     0.05959     0.19591     0.06415
 PY  C  11   0.07922     0.06051    -0.17198     0.06102    -0.11146     0.15598
 PZ  C  11   0.00140     0.00391    -0.00413     0.00596     0.00208     0.00827
  
  S  H  12  -0.11336     0.07396     0.11853    -0.12408     0.15347    -0.15351
  
  S  C  13  -0.09986     0.10923     0.05963     0.20914     0.07327    -0.16365
 PX  C  13  -0.00254     0.14029    -0.17342    -0.08019     0.01555     0.16183
 PY  C  13  -0.10474     0.10151     0.03756    -0.03574     0.21715    -0.01842
 PZ  C  13  -0.00418     0.00767    -0.00445     0.00054     0.00626     0.00249
  
  S  H  14   0.14592     0.04975     0.11499     0.11620    -0.14962     0.13870
  
  S  H  15   0.04799     0.14123    -0.11046     0.15974    -0.03986    -0.20215
  
  S  H  16   0.20421    -0.08848    -0.20169    -0.08410     0.09865    -0.07865
  
  S  H  17   0.20401    -0.08603    -0.20564     0.05504     0.09486    -0.10249
  
  S  H  18   0.06503     0.15001    -0.10208    -0.17682    -0.05659    -0.19803
  
  S  H  19   0.14763     0.06220     0.10376    -0.09960    -0.16663     0.14210
  
  S  H  20  -0.10487     0.06588     0.10933     0.10424     0.15351    -0.14777
  
  S  C  21  -0.17266    -0.16863    -0.10711     0.11459    -0.10490    -0.01666
 PX  C  21  -0.12558    -0.01594    -0.13148    -0.15862    -0.20040     0.00057
 PY  C  21   0.14843    -0.04465     0.16204    -0.11423    -0.04086    -0.15678
 PZ  C  21  -0.00396    -0.00265    -0.00429    -0.00314    -0.00723     0.00169
  
  S  C  22  -0.00906     0.12707    -0.00822    -0.17422     0.03022     0.00314
 PX  C  22  -0.10267     0.13958    -0.16328    -0.10493     0.00336     0.24136
 PY  C  22   0.12282     0.19828     0.08867     0.05766     0.24958     0.03479
 PZ  C  22  -0.00267     0.00119    -0.00408    -0.00265    -0.00161     0.00602
  
  S  C  23   0.04029     0.12937    -0.00703     0.17597     0.05171    -0.01092
 PX  C  23   0.03653     0.24219    -0.00988     0.01281     0.21907     0.15101
 PY  C  23  -0.12430     0.01623    -0.18521     0.12980    -0.11202     0.17573
 PZ  C  23  -0.00101    -0.00048    -0.00047    -0.00351    -0.00071    -0.00088
  
  S  C  24  -0.16399    -0.16302    -0.10271    -0.10903    -0.11531    -0.00332
 PX  C  24   0.10471    -0.04989     0.06633     0.17170    -0.12609    -0.14421
 PY  C  24  -0.16558     0.00645    -0.20361     0.09097    -0.15662     0.08028
 PZ  C  24  -0.00675    -0.00237    -0.00668    -0.00315    -0.00465     0.00418
  
  S  H  25  -0.21125    -0.06487    -0.18769     0.07435    -0.08990     0.08692
  
  S  H  26  -0.06554     0.15755    -0.11023    -0.16151     0.02314     0.18418
  
  S  H  27  -0.02954     0.16246    -0.10770     0.16913     0.05014     0.16842
  
  S  H  28  -0.21131    -0.06563    -0.19092    -0.05400    -0.11262     0.09516
  
  S  C  29   0.13534     0.09596     0.01158     0.09611     0.05636     0.13993
 PX  C  29  -0.07856    -0.14965     0.06958     0.15838     0.12304    -0.08925
 PY  C  29   0.20774    -0.10553     0.14178     0.01851    -0.08722     0.02675
 PZ  C  29   0.00148    -0.00184     0.00095     0.00324     0.00009     0.00417
  
  S  C  30   0.10160     0.09453     0.01953    -0.09163     0.05591     0.13648
 PX  C  30   0.14566    -0.16312     0.15766    -0.10540    -0.01684    -0.00823
 PY  C  30  -0.19811    -0.06787    -0.01144    -0.13264     0.14526    -0.08201
 PZ  C  30  -0.00368    -0.00293    -0.00023    -0.00345     0.00191     0.00129




    ROOT NO.   19          20          21          22          23          24

           -18.37969   -17.24538   -16.93319   -16.60699   -16.10428   -15.27087
  
  
  S  C   1  -0.15126     0.02527     0.01860     0.11617     0.03461     0.06269
 PX  C   1   0.07875    -0.20327     0.01855    -0.03155     0.14904     0.02536
 PY  C   1   0.13195     0.16288     0.01403    -0.10037     0.19783    -0.00279
 PZ  C   1   0.00586     0.01668    -0.00077    -0.00765     0.04806     0.00107
  
  S  C   2   0.16266     0.00317     0.01557    -0.07914     0.00483    -0.00972
 PX  C   2   0.09128     0.20214    -0.02073    -0.06153    -0.15707    -0.05007
 PY  C   2  -0.02138     0.12124     0.09425     0.20965    -0.08207     0.18823
 PZ  C   2  -0.01563     0.01286     0.00378     0.02023     0.02603     0.01800
  
  S  C   3  -0.05104    -0.01860     0.09984     0.19312    -0.06032     0.04748
 PX  C   3  -0.17467     0.03359     0.02309     0.05748     0.27128    -0.06870
 PY  C   3  -0.05014    -0.28609    -0.03609    -0.03828    -0.02326    -0.07502
 PZ  C   3  -0.02858    -0.00509    -0.00556     0.00325     0.03610    -0.00809
  
  S  C   4   0.04854    -0.05432    -0.10777    -0.19129    -0.07441    -0.06908
 PX  C   4   0.12385    -0.23395     0.00270     0.03572     0.07917     0.10287
 PY  C   4   0.09716     0.15165    -0.05512    -0.13611     0.20753     0.02534
 PZ  C   4  -0.01601     0.01720    -0.00717    -0.00747     0.02644    -0.01097
  
  S  C   5  -0.16241     0.01915    -0.01605     0.07302    -0.00716     0.01341
 PX  C   5  -0.02377     0.20656    -0.05120    -0.16856    -0.10147    -0.13841
 PY  C   5  -0.07556     0.10354     0.07930     0.15168    -0.15738     0.13652
 PZ  C   5  -0.01099     0.00458    -0.00195     0.00473     0.01983    -0.00128
  
  S  C   6   0.14705     0.00041    -0.01737    -0.11468     0.06111    -0.05367
 PX  C   6  -0.17188     0.05394    -0.01967     0.08614     0.25027     0.01820
 PY  C   6  -0.00303    -0.25710    -0.02828     0.01688     0.02226    -0.02354
 PZ  C   6  -0.01759    -0.01051    -0.00543     0.00901     0.04071    -0.00123
  
  S  C   7  -0.09545    -0.03660    -0.02281    -0.05150     0.06141    -0.03583
 PX  C   7   0.16452    -0.06562    -0.08656    -0.18190    -0.21928     0.02446
 PY  C   7   0.11424    -0.05456     0.28060     0.14217    -0.02163    -0.11097
 PZ  C   7   0.00520    -0.00487    -0.01283    -0.01935    -0.00588     0.00134
  
  S  C   8   0.09819    -0.03508     0.01585     0.05393     0.07270     0.04679
 PX  C   8  -0.17455    -0.05603    -0.17289     0.00179    -0.16788     0.06313
 PY  C   8  -0.05121     0.01555     0.23236     0.25736    -0.08286    -0.06802
 PZ  C   8  -0.01256     0.00678    -0.00224    -0.00185     0.00210    -0.00690
  
  S  C   9  -0.13393     0.12669    -0.18667    -0.03907    -0.08769     0.05401
 PX  C   9   0.04280     0.11826     0.06419    -0.03849     0.08316    -0.05863
 PY  C   9  -0.07473    -0.22315    -0.05839    -0.00523    -0.10571    -0.04390
 PZ  C   9  -0.00030     0.00124     0.00684    -0.01157     0.00653    -0.01214
  
  S  C  10   0.14532     0.12076     0.20241     0.02749    -0.05742    -0.05897
 PX  C  10   0.04504    -0.10604     0.02052     0.04924    -0.05204     0.02188
 PY  C  10  -0.07778     0.23531    -0.10249    -0.01811     0.10826     0.07073
 PZ  C  10   0.00248    -0.00063    -0.00072    -0.00862     0.00077    -0.00324
  
  S  C  11  -0.10649    -0.02703    -0.02861     0.05047     0.09928     0.01457
 PX  C  11  -0.17865     0.05586    -0.13176    -0.04698     0.12346    -0.00048
 PY  C  11  -0.07797    -0.01485     0.24625    -0.11882     0.06994    -0.19330
 PZ  C  11  -0.00594    -0.00146    -0.00145    -0.00901     0.00441    -0.00732
  
  S  H  12  -0.05801     0.01103    -0.26705     0.09680     0.04372     0.15844
  
  S  C  13   0.08935    -0.05344     0.03446    -0.05240     0.09355    -0.01642
 PX  C  13   0.16012     0.04240    -0.14000     0.11477     0.13815     0.20488
 PY  C  13   0.08781     0.03619     0.24586    -0.04471     0.06139    -0.07927
 PZ  C  13   0.00692     0.00123     0.01244    -0.00896     0.00993    -0.00144
  
  S  H  14  -0.05857    -0.01309    -0.26615    -0.21089    -0.04322     0.08143
  
  S  H  15  -0.19972    -0.01592    -0.00931     0.14509    -0.19653     0.02190
  
  S  H  16   0.12621    -0.01537    -0.07914    -0.22976     0.00163    -0.17545
  
  S  H  17  -0.12308     0.01381     0.08266     0.22587    -0.08123     0.17034
  
  S  H  18   0.21225    -0.04914     0.00808    -0.13078    -0.18605    -0.04438
  
  S  H  19   0.07986     0.01411     0.26227     0.22176     0.05082    -0.05495
  
  S  H  20   0.03749    -0.02541     0.27435    -0.10694     0.03533    -0.15619
  
  S  C  21   0.16474     0.00938    -0.01664     0.05629     0.00406     0.06726
 PX  C  21  -0.03228    -0.18442    -0.14392     0.17218     0.13788    -0.12352
 PY  C  21  -0.12540    -0.12641     0.15113    -0.17393     0.13552     0.31835
 PZ  C  21  -0.00195    -0.00735    -0.00357     0.00236     0.00255    -0.01222
  
  S  C  22  -0.17177    -0.00095     0.06425    -0.10252     0.04084     0.03305
 PX  C  22  -0.15641    -0.04739    -0.00636    -0.03140    -0.24372    -0.22826
 PY  C  22   0.02154     0.25341    -0.01023    -0.00186    -0.06026    -0.13074
 PZ  C  22  -0.00767    -0.00245     0.00079    -0.00439    -0.00608    -0.01603
  
  S  C  23   0.17065     0.01264    -0.06419     0.09915     0.06135    -0.02630
 PX  C  23   0.09755     0.18425     0.04396    -0.00974    -0.16962     0.21230
 PY  C  23   0.14612    -0.17138    -0.02813     0.07439    -0.16088     0.09166
 PZ  C  23  -0.01025     0.00185     0.00694    -0.01202     0.00208    -0.00431
  
  S  C  24  -0.15753     0.01048     0.01045    -0.04998    -0.01267    -0.06908
 PX  C  24   0.08464    -0.19260    -0.08203     0.08165     0.19517    -0.18352
 PY  C  24  -0.03974    -0.15542     0.18212    -0.21353     0.01160     0.27865
 PZ  C  24  -0.01219    -0.00041     0.01588    -0.02147    -0.00405     0.01324
  
  S  H  25   0.15806     0.03017    -0.18603     0.23020    -0.04033    -0.26239
  
  S  H  26  -0.21051    -0.03467     0.02689    -0.07895    -0.19217    -0.18820
  
  S  H  27   0.22489    -0.02474    -0.03182     0.09882    -0.16833     0.15648
  
  S  H  28  -0.13998    -0.03098     0.18198    -0.22205    -0.07517     0.25435
  
  S  C  29  -0.06147    -0.05406     0.16222    -0.14381    -0.09809    -0.00463
 PX  C  29   0.14438     0.21204     0.04970    -0.07009    -0.09315     0.16233
 PY  C  29   0.11368    -0.15303    -0.06934     0.07047    -0.19061     0.08551
 PZ  C  29  -0.00017    -0.00332     0.00187    -0.00628    -0.00353    -0.00577
  
  S  C  30   0.06364    -0.01817    -0.15927     0.14885    -0.07801    -0.00351
 PX  C  30  -0.16292    -0.00528     0.03458    -0.00904    -0.21362    -0.19948
 PY  C  30  -0.04445     0.28786    -0.04758     0.04911     0.03286    -0.08522
 PZ  C  30  -0.00743     0.00333     0.01085    -0.01284    -0.00263    -0.00436




    ROOT NO.   25          26          27          28          29          30

           -14.85467   -14.75369   -14.64681   -14.59202   -13.80068   -13.46576
  
  
  S  C   1   0.03301     0.00598     0.04799    -0.02792     0.04961    -0.01752
 PX  C   1   0.29492     0.11600    -0.03486     0.03008     0.12138     0.03064
 PY  C   1  -0.03858     0.25898     0.09093    -0.06313     0.09638    -0.07272
 PZ  C   1  -0.01129     0.01728     0.07568     0.09653     0.08359     0.21008
  
  S  C   2   0.02211     0.10881     0.02943    -0.00053    -0.02353     0.01962
 PX  C   2  -0.29375    -0.07260     0.03540    -0.02070    -0.15177    -0.01153
 PY  C   2   0.20411     0.08798     0.14259    -0.08397    -0.06511     0.00318
 PZ  C   2   0.01877    -0.00268     0.09952     0.13186     0.07446     0.24638
  
  S  C   3   0.01685    -0.03126    -0.02400     0.01136     0.03618    -0.01935
 PX  C   3  -0.15040     0.01041    -0.08246     0.02918     0.21146    -0.06031
 PY  C   3   0.06963    -0.10207    -0.14466     0.06132     0.04441    -0.00797
 PZ  C   3  -0.00354    -0.02666     0.12987     0.23939     0.08231     0.30409
  
  S  C   4   0.01572    -0.03692    -0.03056     0.01590     0.02590     0.00756
 PX  C   4   0.19509    -0.04115     0.05649    -0.02387     0.17566    -0.06864
 PY  C   4  -0.02848     0.11189     0.11043    -0.07277     0.15994    -0.07412
 PZ  C   4  -0.03243    -0.01562     0.14070     0.22966     0.06175     0.30327
  
  S  C   5  -0.09097    -0.04080     0.03286    -0.01822    -0.03109     0.00373
 PX  C   5  -0.15522     0.06698    -0.05858     0.04153    -0.14350     0.08505
 PY  C   5   0.16435     0.28191     0.18693    -0.08315    -0.03504     0.01591
 PZ  C   5  -0.02312    -0.01612     0.08839     0.13784     0.06356     0.24744
  
  S  C   6  -0.03389     0.00836    -0.03398     0.02639     0.04117    -0.00014
 PX  C   6  -0.21671    -0.12578     0.02125    -0.05404     0.10780    -0.12811
 PY  C   6   0.05159    -0.26756    -0.14191     0.05925     0.01091    -0.00526
 PZ  C   6  -0.03205    -0.04110     0.05948     0.10503     0.07599     0.21183
  
  S  C   7   0.06146     0.01715    -0.02649     0.01031    -0.02580     0.01535
 PX  C   7   0.15490     0.02315     0.05095    -0.06015    -0.23720     0.03418
 PY  C   7  -0.18410     0.23977    -0.11012     0.08642    -0.12566     0.01650
 PZ  C   7   0.02523    -0.01917     0.13971     0.22195     0.00766     0.16223
  
  S  C   8   0.00650    -0.07001    -0.00101    -0.01089    -0.02106    -0.01049
 PX  C   8  -0.11554    -0.06903     0.18219    -0.11359    -0.19193     0.03948
 PY  C   8  -0.03187    -0.06131    -0.23198     0.12954    -0.16371     0.07253
 PZ  C   8  -0.01713    -0.01157     0.13518     0.21737     0.01156     0.15252
  
  S  C   9   0.01194     0.02512    -0.01405     0.01391     0.00049     0.00854
 PX  C   9   0.12716     0.09460    -0.22752     0.11428     0.19800    -0.03706
 PY  C   9   0.03266     0.06434    -0.12355     0.06788     0.09471    -0.03561
 PZ  C   9   0.00762    -0.00562     0.15895     0.29589    -0.00057     0.01410
  
  S  C  10  -0.02056    -0.02246     0.00491    -0.01104    -0.00221     0.00289
 PX  C  10   0.02659    -0.25901     0.08578    -0.06205     0.23249    -0.05817
 PY  C  10   0.06101    -0.13233     0.03493    -0.03110     0.13990    -0.01021
 PZ  C  10   0.01482    -0.02614     0.17415     0.28729    -0.00494     0.02623
  
  S  C  11  -0.05393    -0.03167     0.03872    -0.01121     0.01884    -0.00153
 PX  C  11  -0.01256     0.23862    -0.08934     0.03765    -0.22806     0.06516
 PY  C  11   0.16286    -0.20009     0.13148    -0.11508    -0.15656     0.04959
 PZ  C  11   0.01118    -0.00366     0.12813     0.22380    -0.05251    -0.12899
  
  S  H  12  -0.14783     0.22979    -0.12131     0.09594     0.04761    -0.01520
  
  S  C  13   0.01175     0.06961     0.00603    -0.00793     0.00194    -0.00907
 PX  C  13  -0.00238    -0.03633    -0.07559     0.02640    -0.26510     0.06028
 PY  C  13  -0.10230    -0.10100     0.29659    -0.18614    -0.05389     0.02169
 PZ  C  13   0.00203    -0.01315     0.14305     0.22764    -0.04899    -0.14703
  
  S  H  14   0.23115    -0.15616     0.09374    -0.07855    -0.02436     0.01458
  
  S  H  15  -0.09033    -0.25518    -0.03861     0.01054    -0.12176     0.01217
  
  S  H  16  -0.27001    -0.05453    -0.09653     0.04498    -0.03404    -0.02146
  
  S  H  17   0.15382     0.18497     0.18361    -0.09148     0.01020    -0.02285
  
  S  H  18   0.18323     0.11351    -0.04842     0.05468    -0.09026     0.10096
  
  S  H  19   0.03189    -0.04355    -0.24603     0.14094    -0.05301     0.03613
  
  S  H  20  -0.07025    -0.03585     0.26253    -0.15032     0.08075    -0.01931
  
  S  C  21  -0.00681    -0.08039    -0.00115    -0.00161     0.02777    -0.00007
 PX  C  21  -0.05108    -0.03013     0.12377    -0.07170    -0.13505     0.02952
 PY  C  21  -0.16625     0.02497     0.01684    -0.01847    -0.06420     0.05282
 PZ  C  21   0.00730    -0.00340     0.08625     0.14953    -0.05990    -0.24800
  
  S  C  22   0.02513     0.02340    -0.03228     0.01375    -0.05787     0.00833
 PX  C  22  -0.00683     0.20555     0.00210    -0.00437     0.15905    -0.01593
 PY  C  22   0.21824    -0.08282    -0.10827     0.06377     0.01065    -0.04739
 PZ  C  22   0.01116     0.00548     0.06050     0.11812    -0.04674    -0.23130
  
  S  C  23   0.00271    -0.03678     0.03727    -0.02117    -0.05595     0.00812
 PX  C  23  -0.02744    -0.18894    -0.05344     0.04499     0.11994    -0.02490
 PY  C  23  -0.24128     0.07357     0.10967    -0.04961     0.14163     0.01229
 PZ  C  23   0.01812    -0.00294     0.05424     0.12412    -0.05496    -0.23554
  
  S  C  24   0.06816     0.01849    -0.04794     0.01651     0.02540     0.00325
 PX  C  24  -0.00410     0.16810     0.08586    -0.05367    -0.15514     0.01903
 PY  C  24  -0.03714     0.02911    -0.08417     0.04747    -0.08986    -0.00716
 PZ  C  24   0.01335    -0.00987     0.07326     0.16546    -0.05687    -0.26151
  
  S  H  25   0.10538    -0.06704     0.03490    -0.00768     0.00944    -0.03996
  
  S  H  26   0.00841     0.19995    -0.01551     0.00690     0.12579    -0.01734
  
  S  H  27  -0.19618    -0.05733     0.07599    -0.02891     0.15419     0.00455
  
  S  H  28   0.00595    -0.04256    -0.11500     0.07430     0.01180    -0.03074
  
  S  C  29  -0.01555     0.03856     0.03328    -0.02757    -0.00783     0.00765
 PX  C  29   0.03452    -0.00854    -0.13677     0.07603     0.15552    -0.02235
 PY  C  29  -0.16230     0.10256     0.00007     0.03350     0.19771    -0.06803
 PZ  C  29   0.00866    -0.00544     0.13652     0.24569    -0.07062    -0.28820
  
  S  C  30  -0.06647     0.02878     0.00481     0.01520    -0.00951    -0.00193
 PX  C  30  -0.03719     0.01411     0.08118    -0.03512     0.26864    -0.04717
 PY  C  30   0.12136    -0.12927    -0.03622    -0.00483     0.04102     0.03556
 PZ  C  30   0.01143    -0.01389     0.14080     0.25321    -0.06769    -0.30073




    ROOT NO.   31          32          33          34          35          36

           -13.06965   -13.03245   -12.07609   -11.78701   -11.72462   -11.48730
  
  
  S  C   1  -0.01296     0.01443     0.00452    -0.00209     0.00297    -0.00917
 PX  C   1   0.21411    -0.10515    -0.13273     0.00696     0.08106    -0.11168
 PY  C   1   0.09511     0.19973     0.19764     0.00236    -0.09163    -0.08104
 PZ  C   1  -0.03360     0.07440    -0.01724    -0.31225     0.00348     0.05608
  
  S  C   2   0.00596     0.01838    -0.02791     0.00352     0.02557     0.04778
 PX  C   2  -0.21937     0.08803     0.08699     0.00014    -0.05376     0.14858
 PY  C   2  -0.11248    -0.13239    -0.21525     0.07155     0.12643     0.14859
 PZ  C   2  -0.03800     0.02974    -0.05886    -0.22286     0.02137     0.03903
  
  S  C   3  -0.02353     0.00197     0.00191     0.00076     0.01042    -0.02634
 PX  C   3   0.17460     0.03248    -0.10977     0.02996     0.12808    -0.18624
 PY  C   3   0.12081     0.05732     0.26241    -0.08026    -0.19672    -0.15244
 PZ  C   3  -0.01643     0.03304    -0.01116    -0.05847    -0.01141    -0.02854
  
  S  C   4   0.03728    -0.00075     0.01019    -0.00819    -0.00034     0.01214
 PX  C   4  -0.20356     0.07123     0.18167    -0.00771    -0.12322     0.16981
 PY  C   4  -0.09542    -0.00252    -0.21573     0.09387     0.19357     0.17647
 PZ  C   4  -0.03639     0.04682    -0.03766    -0.06796     0.02071     0.00525
  
  S  C   5  -0.01183     0.02299    -0.02149    -0.00322     0.02615    -0.02785
 PX  C   5   0.23103    -0.05708    -0.15481    -0.00775     0.10213    -0.16204
 PY  C   5   0.11303     0.14815     0.15241    -0.04567    -0.07698    -0.09103
 PZ  C   5  -0.05806     0.06189    -0.03093    -0.25237     0.01431     0.06591
  
  S  C   6  -0.00108     0.01416     0.01261    -0.01261    -0.00678     0.01912
 PX  C   6  -0.21433     0.10960     0.13615     0.04078    -0.07142     0.09793
 PY  C   6  -0.11051    -0.20641    -0.18556     0.06548     0.08828     0.09942
 PZ  C   6  -0.08348     0.05766    -0.03509    -0.31892     0.01425     0.10116
  
  S  C   7   0.07469     0.00043    -0.01120     0.01701     0.04193     0.02120
 PX  C   7  -0.13054    -0.01046     0.10527    -0.03247    -0.10135     0.20862
 PY  C   7  -0.00512     0.15345    -0.05191     0.05314     0.14347     0.16326
 PZ  C   7  -0.03075    -0.00593     0.05406     0.16623    -0.05326    -0.01368
  
  S  C   8  -0.07583     0.00707    -0.02329     0.01126     0.05755    -0.00333
 PX  C   8   0.09210     0.13721    -0.02758    -0.01905     0.12042    -0.22132
 PY  C   8   0.11657    -0.09461     0.10642    -0.06935    -0.15091    -0.15338
 PZ  C   8  -0.01519     0.01840     0.01437     0.15567     0.00120    -0.02621
  
  S  C   9   0.05783    -0.02442     0.00563     0.00188     0.00261     0.00813
 PX  C   9  -0.02804    -0.14554     0.05033    -0.01175    -0.15070     0.22362
 PY  C   9   0.04949     0.27030     0.05987     0.04549     0.25609     0.15933
 PZ  C   9  -0.01086    -0.01682     0.06488     0.33511    -0.02229    -0.01716
  
  S  C  10  -0.05314    -0.03358    -0.00740    -0.01401     0.00267    -0.00390
 PX  C  10  -0.00315     0.15730     0.02559    -0.00870     0.19364    -0.22951
 PY  C  10   0.01631    -0.26036    -0.01435    -0.05456    -0.23414    -0.16163
 PZ  C  10  -0.01300    -0.02281     0.08289     0.33680    -0.03910    -0.04101
  
  S  C  11   0.08222     0.00550     0.01837     0.00926     0.05209    -0.01313
 PX  C  11   0.06016    -0.14137    -0.00591    -0.00521    -0.15213     0.23489
 PY  C  11   0.10691     0.06221     0.13440     0.00165     0.14347     0.11021
 PZ  C  11   0.01611    -0.03893     0.05192     0.14273    -0.01493     0.00020
  
  S  H  12  -0.02640    -0.10612    -0.11911    -0.00330    -0.19206    -0.00357
  
  S  C  13  -0.08725     0.00186     0.01353     0.00330     0.05015     0.01581
 PX  C  13  -0.11932    -0.00107     0.05845    -0.03361     0.10718    -0.21566
 PY  C  13  -0.02055    -0.15985    -0.11558    -0.03763    -0.17936    -0.16046
 PZ  C  13   0.00667    -0.03603     0.02696     0.14161    -0.00321    -0.02876
  
  S  H  14  -0.02498    -0.13249     0.09934    -0.05280    -0.18165    -0.02767
  
  S  H  15  -0.18938    -0.11605    -0.09708     0.03020     0.03697     0.12033
  
  S  H  16   0.00910     0.15369     0.23380    -0.04324    -0.14168    -0.05310
  
  S  H  17  -0.00565     0.15891     0.20593    -0.03840    -0.11736    -0.02665
  
  S  H  18   0.21384    -0.11533    -0.13575    -0.01059     0.07110    -0.10145
  
  S  H  19   0.01422    -0.14137     0.10150    -0.04751    -0.18924    -0.03001
  
  S  H  20  -0.00007    -0.13023    -0.13157    -0.01137    -0.21537    -0.02891
  
  S  C  21   0.02094     0.01794     0.02371     0.00103     0.03813    -0.02885
 PX  C  21   0.22578     0.07402    -0.10694     0.02972    -0.15285     0.18358
 PY  C  21   0.11614    -0.17600     0.14521    -0.01866     0.08709     0.07655
 PZ  C  21   0.03300    -0.02939    -0.02245    -0.23153     0.03803     0.02486
  
  S  C  22  -0.01154     0.01742    -0.00656    -0.00015    -0.00708     0.01363
 PX  C  22  -0.22332    -0.14695     0.07407    -0.01204     0.08373    -0.12284
 PY  C  22  -0.12292     0.24539    -0.16189     0.02657    -0.08890    -0.08781
 PZ  C  22   0.01127    -0.02505    -0.03674    -0.30381     0.05256     0.01337
  
  S  C  23   0.00850     0.00692    -0.00606    -0.00366    -0.00252    -0.01683
 PX  C  23   0.23595     0.12435    -0.05950     0.02570    -0.07482     0.14335
 PY  C  23   0.10133    -0.26169     0.16359    -0.03482     0.10238     0.05501
 PZ  C  23   0.01222    -0.00419    -0.05539    -0.30002     0.04267     0.00932
  
  S  C  24  -0.00961     0.01828     0.03354     0.01257     0.03138     0.03704
 PX  C  24  -0.23526    -0.10742     0.02049    -0.03178     0.04659    -0.16863
 PY  C  24  -0.11574     0.16710    -0.18838     0.02398    -0.12999    -0.11528
 PZ  C  24   0.02629    -0.00354    -0.04965    -0.22634     0.02948     0.01141
  
  S  H  25   0.01347     0.18999    -0.17520     0.02491    -0.14173     0.00520
  
  S  H  26  -0.22816    -0.13573     0.06980    -0.01885     0.08315    -0.12562
  
  S  H  27   0.21589    -0.14781     0.10606    -0.01132     0.04363     0.12496
  
  S  H  28   0.00764     0.19461    -0.16828     0.02815    -0.13161    -0.00226
  
  S  C  29  -0.03865    -0.01264    -0.00486     0.00027    -0.00796     0.01272
 PX  C  29  -0.19465    -0.08129     0.12924    -0.02608     0.17850    -0.19403
 PY  C  29  -0.08072     0.04841    -0.23091     0.01188    -0.20419    -0.12418
 PZ  C  29   0.03235    -0.04621     0.01428    -0.06442     0.02256     0.00923
  
  S  C  30   0.03686    -0.00431    -0.01192    -0.00396    -0.00718    -0.00979
 PX  C  30   0.16881    -0.02010    -0.07733     0.02600    -0.14656     0.20060
 PY  C  30   0.11957    -0.09943     0.25589    -0.01272     0.22195     0.10994
 PZ  C  30   0.03849    -0.03961     0.00251    -0.06245     0.02772     0.00632




    ROOT NO.   37          38          39          40          41          42

           -10.63992    -9.82292    -9.69088    -8.33116    -8.10655    -6.70685
  
  
  S  C   1   0.00064    -0.00613     0.00213     0.00444     0.00729     0.00624
 PX  C   1   0.01073    -0.01680    -0.01813    -0.01662     0.00757    -0.00657
 PY  C   1   0.00962     0.03763    -0.02955    -0.02069    -0.03636    -0.01635
 PZ  C   1  -0.06061    -0.28621     0.25581     0.22111     0.29833     0.18061
  
  S  C   2  -0.00700     0.00352     0.00938     0.00513    -0.00551    -0.00027
 PX  C   2  -0.01590     0.01836     0.02441     0.01951    -0.01005     0.00618
 PY  C   2   0.01040     0.00412    -0.03102    -0.03302    -0.00594    -0.01929
 PZ  C   2  -0.16885    -0.04342     0.37292     0.36680     0.03114     0.20795
  
  S  C   3   0.01030    -0.01598    -0.01247    -0.00522     0.01759     0.00760
 PX  C   3   0.00208    -0.02896    -0.01224    -0.01358     0.02943     0.00336
 PY  C   3   0.02446    -0.01497    -0.01348     0.00444     0.01400     0.01170
 PZ  C   3  -0.20687     0.29101     0.20234     0.08068    -0.34204    -0.13024
  
  S  C   4  -0.00003    -0.00252     0.00403     0.00637     0.00088     0.00495
 PX  C   4   0.01290     0.03329    -0.01491     0.00785    -0.03078     0.00895
 PY  C   4  -0.01942     0.00099     0.00990    -0.00591     0.00999    -0.00602
 PZ  C   4   0.16694     0.21611    -0.28934    -0.02051    -0.36730     0.12589
  
  S  C   5   0.00229    -0.00903    -0.00825    -0.01485     0.00136    -0.00969
 PX  C   5  -0.00322    -0.02855     0.00052    -0.01367     0.01743    -0.00874
 PY  C   5   0.00443    -0.00301    -0.00059    -0.00048     0.00165    -0.00152
 PZ  C   5   0.18486    -0.17264    -0.31483    -0.35589    -0.04000    -0.20524
  
  S  C   6   0.00522    -0.01366    -0.00604    -0.01079     0.01089    -0.00694
 PX  C   6  -0.01135     0.04583     0.01130     0.02552    -0.02567     0.01600
 PY  C   6  -0.01168     0.02177     0.01346     0.02342    -0.01126     0.01740
 PZ  C   6   0.10562    -0.35458    -0.10973    -0.24748     0.24942    -0.17058
  
  S  C   7  -0.00850     0.00571     0.00497    -0.01073     0.00273    -0.01506
 PX  C   7   0.03189    -0.00675    -0.01238     0.02413    -0.00571     0.03189
 PY  C   7  -0.02024     0.01075     0.01517    -0.00264    -0.00052    -0.00668
 PZ  C   7  -0.32109     0.21917     0.19391    -0.23153     0.00734    -0.36605
  
  S  C   8  -0.00930     0.00037     0.00727    -0.00476    -0.00494    -0.01039
 PX  C   8  -0.01392    -0.02352     0.01472    -0.00959     0.01141    -0.01497
 PY  C   8   0.00650    -0.01474     0.00155    -0.00284     0.00762    -0.00417
 PZ  C   8   0.29746     0.17344    -0.29209     0.22140     0.02292     0.37140
  
  S  C   9   0.00614    -0.00505    -0.00041     0.00352     0.00989     0.00047
 PX  C   9  -0.00632     0.01237    -0.00089    -0.00779    -0.02565    -0.00061
 PY  C   9  -0.01516     0.00781     0.00904    -0.00271    -0.01548    -0.00573
 PZ  C   9   0.26988     0.01552    -0.06980     0.20471     0.37291     0.02353
  
  S  C  10   0.00239     0.00085     0.00248     0.00949    -0.01155     0.00121
 PX  C  10   0.00488    -0.00620    -0.00441     0.00547    -0.00858    -0.00632
 PY  C  10   0.01523    -0.00758    -0.01284    -0.00163    -0.00019     0.00140
 PZ  C  10  -0.25461    -0.01173     0.02977    -0.26165     0.33894    -0.01293
  
  S  C  11  -0.01232    -0.00749    -0.00241    -0.01026     0.00184     0.01054
 PX  C  11   0.01657     0.01702     0.00683     0.01076    -0.00187    -0.00978
 PY  C  11   0.00631     0.00788     0.00426     0.00336    -0.00058    -0.00316
 PZ  C  11  -0.32997    -0.28094    -0.11214    -0.20959    -0.03932     0.39104
  
  S  H  12   0.00478     0.00187    -0.00078     0.00270     0.00124    -0.00606
  
  S  C  13  -0.00608     0.00522    -0.00029    -0.00316    -0.00511     0.00381
 PX  C  13  -0.00635    -0.00615    -0.00521    -0.00389     0.00615     0.00999
 PY  C  13  -0.01109    -0.00269    -0.01013    -0.00960     0.00679     0.01523
 PZ  C  13   0.36693    -0.15609     0.19308     0.21628     0.00864    -0.38171
  
  S  H  14   0.02249    -0.00261    -0.01360     0.00559    -0.00314     0.00986
  
  S  H  15  -0.00760     0.00839     0.00828     0.00504    -0.00559    -0.00041
  
  S  H  16  -0.00097     0.01276     0.00466     0.00546    -0.00756    -0.00007
  
  S  H  17   0.00434     0.01208     0.00017     0.00689    -0.00933     0.00301
  
  S  H  18   0.00204    -0.01461    -0.00159    -0.00290     0.00363     0.00016
  
  S  H  19   0.01391     0.00239    -0.00841     0.00424    -0.00155     0.00775
  
  S  H  20   0.00083    -0.00109    -0.00324    -0.00187     0.00183    -0.00003
  
  S  C  21   0.00483    -0.00092     0.00657    -0.00852    -0.00045     0.00678
 PX  C  21   0.01003     0.00786     0.01202    -0.00797     0.00250     0.00565
 PY  C  21   0.00219     0.00661     0.00091    -0.00028     0.00052     0.00081
 PZ  C  21  -0.26209     0.03887    -0.34382     0.32456     0.02398    -0.23580
  
  S  C  22  -0.00477     0.00224    -0.00660     0.00720     0.00344    -0.00589
 PX  C  22   0.00768    -0.01266     0.01062    -0.00911    -0.00987     0.00747
 PY  C  22  -0.00674    -0.01188    -0.00441     0.00248    -0.00198    -0.00076
 PZ  C  22  -0.15461     0.30257    -0.25022     0.19233     0.26725    -0.20279
  
  S  C  23   0.00219    -0.00065     0.00263    -0.00229    -0.00051     0.00190
 PX  C  23  -0.00592     0.00660    -0.00642     0.00441     0.00361    -0.00270
 PY  C  23   0.00856     0.01934     0.00702    -0.00956     0.00666     0.00617
 PZ  C  23   0.07778     0.39245     0.09599    -0.24053     0.23715     0.20896
  
  S  C  24  -0.00456    -0.00492    -0.00598     0.00798    -0.00168    -0.00581
 PX  C  24   0.00962    -0.00327     0.01140    -0.00985    -0.00304     0.00622
 PY  C  24  -0.01821    -0.01953    -0.01864     0.01751     0.00043    -0.01106
 PZ  C  24   0.22234     0.20787     0.29385    -0.32728    -0.02006     0.23424
  
  S  H  25  -0.00351    -0.00243    -0.00339     0.00355     0.00084    -0.00354
  
  S  H  26   0.00304    -0.00694     0.00397    -0.00417    -0.00480     0.00305
  
  S  H  27   0.00396     0.01381     0.00220    -0.00290     0.00324     0.00104
  
  S  H  28  -0.00897    -0.00479    -0.00677     0.00323     0.00046    -0.00047
  
  S  C  29   0.00026     0.00458    -0.00058     0.00318     0.00434    -0.00354
 PX  C  29  -0.00114    -0.00586    -0.00145    -0.00199     0.00020    -0.00085
 PY  C  29  -0.00466    -0.00426    -0.00489    -0.00158     0.00568    -0.00084
 PZ  C  29  -0.23560    -0.32644    -0.15294     0.06240    -0.32140     0.15529
  
  S  C  30   0.00867    -0.00144     0.00871    -0.00266    -0.00216    -0.00074
 PX  C  30  -0.00416     0.01261    -0.00414    -0.00154     0.00261     0.00291
 PY  C  30   0.00431     0.01326     0.00294    -0.00359     0.00422     0.00341
 PZ  C  30   0.26143    -0.19524     0.27310    -0.00674    -0.31452    -0.15695




    ROOT NO.   43          44          45          46          47          48

            -1.04271     0.23681     0.34532     1.30299     1.31200     1.84110
  
  
  S  C   1  -0.00467    -0.02162    -0.00182    -0.00163     0.03658     0.00299
 PX  C   1  -0.00333     0.00575    -0.00431    -0.00374    -0.00864    -0.00356
 PY  C   1   0.02357     0.02377     0.02930     0.02803    -0.02222     0.01192
 PZ  C   1  -0.18546    -0.29443    -0.20981    -0.20489     0.33062    -0.06883
  
  S  C   2   0.00817     0.01333     0.00820     0.00881    -0.02405     0.00349
 PX  C   2   0.00555    -0.00016     0.00526     0.00401     0.00237     0.00277
 PY  C   2  -0.01573     0.00199    -0.03253    -0.03776     0.00382    -0.01941
 PZ  C   2   0.20664     0.03449     0.34876     0.36563    -0.11311     0.17379
  
  S  C   3  -0.00768    -0.02622     0.00526     0.01383     0.03027     0.01195
 PX  C   3  -0.00675    -0.01571     0.00629     0.01302     0.00680     0.00693
 PY  C   3  -0.00059    -0.01261     0.01150     0.01986     0.00977     0.01496
 PZ  C   3   0.13562     0.34877    -0.07574    -0.24811    -0.25338    -0.19858
  
  S  C   4  -0.00332     0.01100    -0.01102    -0.01364    -0.03063    -0.01497
 PX  C   4   0.01008    -0.00865     0.00784     0.00299     0.00882     0.00126
 PY  C   4  -0.01109     0.00395    -0.00374     0.01308    -0.00341     0.01133
 PZ  C   4   0.13155    -0.36349    -0.01889    -0.26569     0.25988    -0.19020
  
  S  C   5   0.01269    -0.01050     0.02817     0.03347     0.03618     0.02571
 PX  C   5  -0.00278     0.00158    -0.00150    -0.00059     0.00078     0.00107
 PY  C   5  -0.00471     0.00661    -0.00872    -0.00764    -0.01180    -0.00456
 PZ  C   5   0.20465     0.01857     0.34215     0.34924     0.12298     0.19087
  
  S  C   6  -0.01380     0.02312    -0.02392    -0.02124    -0.04790    -0.01671
 PX  C   6   0.01097    -0.01629     0.01447     0.00998     0.01749     0.00513
 PY  C   6   0.00342    -0.02159     0.00443     0.00022     0.02331     0.00048
 PZ  C   6  -0.17151     0.26000    -0.24290    -0.17863    -0.33709    -0.10556
  
  S  C   7  -0.01074     0.00749    -0.01144    -0.00262    -0.00972     0.00259
 PX  C   7   0.02662    -0.01181     0.01921    -0.00997    -0.00290    -0.01578
 PY  C   7  -0.00161    -0.00346    -0.00086     0.00029     0.00082     0.00143
 PZ  C   7  -0.36454    -0.00610    -0.23325     0.21644     0.18736     0.31509
  
  S  C   8   0.01244    -0.00237     0.00916    -0.00707     0.02159    -0.00433
 PX  C   8   0.00949     0.00318     0.00489    -0.00888     0.00282    -0.00815
 PY  C   8   0.00465     0.00259     0.00270    -0.00645    -0.00268    -0.00872
 PZ  C   8  -0.37300    -0.02468    -0.23262     0.23845    -0.20431     0.29660
  
  S  C   9  -0.00158     0.00502    -0.00069     0.00162    -0.01277    -0.00559
 PX  C   9   0.00599    -0.02074    -0.00528    -0.00047     0.00524     0.00678
 PY  C   9   0.00066    -0.00619    -0.00950     0.00347     0.00101     0.00892
 PZ  C   9   0.02409     0.37424     0.21851    -0.04500     0.02318    -0.26380
  
  S  C  10  -0.00154     0.01133    -0.00255     0.00343     0.00626     0.00113
 PX  C  10  -0.00919     0.01482    -0.00964     0.00375     0.00278     0.00425
 PY  C  10  -0.00371     0.00222    -0.00501    -0.00052     0.00157     0.00440
 PZ  C  10   0.01349    -0.33309     0.27645    -0.02328     0.00158    -0.27769
  
  S  C  11   0.01027    -0.00328    -0.00723    -0.00612    -0.01261     0.01601
 PX  C  11  -0.00944     0.00536     0.00420     0.00465     0.00655    -0.00802
 PY  C  11  -0.00508     0.00126     0.00344     0.00318     0.00331    -0.00668
 PZ  C  11   0.38248    -0.04439    -0.20250    -0.16774    -0.23324     0.33568
  
  S  H  12  -0.00478     0.00087     0.00339     0.00395     0.00772    -0.01094
  
  S  C  13  -0.00377    -0.00155     0.00595    -0.00279     0.00646     0.00290
 PX  C  13  -0.01046     0.00404     0.00685     0.00010    -0.00532    -0.00538
 PY  C  13  -0.01462     0.00295     0.00791     0.00607    -0.01047    -0.01538
 PZ  C  13   0.37573    -0.00171    -0.20845    -0.17340     0.18881     0.35117
  
  S  H  14   0.00561    -0.00600     0.00583     0.00047     0.00721    -0.00091
  
  S  H  15   0.00348     0.01305     0.00127     0.00018    -0.02226    -0.00256
  
  S  H  16  -0.00007    -0.00203    -0.00333    -0.00746     0.01056    -0.00422
  
  S  H  17  -0.00154     0.00663    -0.01276    -0.02184    -0.01927    -0.01780
  
  S  H  18   0.00744    -0.01391     0.01419     0.01262     0.03090     0.01024
  
  S  H  19  -0.00421    -0.00234    -0.00320     0.00508    -0.00888     0.00572
  
  S  H  20   0.00285    -0.00085    -0.00279     0.00006    -0.00142     0.00025
  
  S  C  21   0.00573     0.00244    -0.01116     0.01092    -0.00031    -0.00731
 PX  C  21   0.00701    -0.00110    -0.00736     0.00781    -0.00091    -0.00735
 PY  C  21  -0.00154     0.00217     0.00239    -0.00300     0.00271     0.00268
 PZ  C  21  -0.23637     0.03307     0.33284    -0.32242     0.10340     0.24871
  
  S  C  22   0.00333    -0.00441    -0.00353     0.00443    -0.00227    -0.00447
 PX  C  22  -0.00649     0.00634     0.00565    -0.00457     0.00670     0.00304
 PY  C  22   0.00247     0.00021    -0.00463     0.00459     0.00117    -0.00307
 PZ  C  22   0.21077    -0.26691    -0.20274     0.18417    -0.34413    -0.13495
  
  S  C  23  -0.00375     0.00062     0.00420    -0.00307    -0.00401     0.00130
 PX  C  23   0.00535     0.00120    -0.00542     0.00367     0.00571    -0.00183
 PY  C  23   0.00407     0.00410    -0.00449     0.00333     0.00638    -0.00253
 PZ  C  23   0.21214     0.23559    -0.24052     0.15589     0.36912    -0.08930
  
  S  C  24   0.00834     0.00049    -0.01067     0.00934     0.01260    -0.00628
 PX  C  24  -0.00804    -0.00038     0.00788    -0.00553    -0.00551     0.00341
 PY  C  24   0.00655    -0.00173    -0.01327     0.01555     0.00177    -0.01276
 PZ  C  24  -0.23695     0.01300     0.33663    -0.31351    -0.15041     0.22499
  
  S  H  25  -0.00260    -0.00214     0.00682    -0.00855    -0.00094     0.00736
  
  S  H  26  -0.00453     0.00196     0.00506    -0.00559    -0.00047     0.00530
  
  S  H  27   0.00145    -0.00078     0.00020    -0.00176     0.00035     0.00247
  
  S  H  28  -0.00373    -0.00068     0.00760    -0.00941    -0.00825     0.00834
  
  S  C  29  -0.00044    -0.00281     0.00675    -0.00515     0.00475     0.00025
 PX  C  29   0.00004    -0.00322     0.00194    -0.00561    -0.00542     0.00693
 PY  C  29   0.00578    -0.00286    -0.00292    -0.00453    -0.00416     0.00851
 PZ  C  29  -0.15795     0.32131    -0.06998     0.21872     0.29297    -0.24418
  
  S  C  30  -0.00362    -0.00213    -0.00243     0.00663    -0.01050    -0.00656
 PX  C  30   0.00398     0.00384    -0.00003    -0.00270     0.00552     0.00363
 PY  C  30   0.00170     0.00346     0.00458    -0.00891     0.00307     0.00795
 PZ  C  30  -0.15830    -0.31592    -0.02392     0.24113    -0.25098    -0.26209




    ROOT NO.   49          50          51          52          53          54

             2.38176     2.48337     2.88980     3.13459     3.32347     3.39734
  
  
  S  C   1   0.09894    -0.07579     0.18338     0.09922     0.22271    -0.05200
 PX  C   1  -0.00086    -0.03363     0.03001    -0.02390     0.04984     0.05746
 PY  C   1  -0.00485    -0.02076     0.02970     0.00243    -0.00171    -0.05800
 PZ  C   1   0.27876     0.13119    -0.04512     0.21803    -0.06454     0.05510
  
  S  C   2  -0.09782     0.13804    -0.22966    -0.03704    -0.25636    -0.03889
 PX  C   2  -0.00046     0.03080    -0.01218     0.03533     0.00802    -0.04326
 PY  C   2   0.00059     0.05387    -0.04889     0.03999    -0.03861    -0.01892
 PZ  C   2  -0.22015    -0.08215     0.01058    -0.24342     0.05378    -0.04649
  
  S  C   3   0.10958    -0.22775     0.28619    -0.05121     0.21424     0.06530
 PX  C   3  -0.01633    -0.01537    -0.04972    -0.04241    -0.00687     0.11878
 PY  C   3   0.00733    -0.02788     0.01495    -0.03339    -0.09747    -0.08796
 PZ  C   3   0.09080    -0.01203     0.05923     0.31195    -0.03434     0.03497
  
  S  C   4  -0.13435     0.21273    -0.27123     0.02583     0.04624     0.21572
 PX  C   4   0.00108     0.03933     0.00430     0.03827     0.01406    -0.07631
 PY  C   4   0.00365    -0.00238     0.05358     0.01103     0.14580     0.06431
 PZ  C   4  -0.08113    -0.00963    -0.02603    -0.30773     0.05241    -0.03762
  
  S  C   5   0.12538    -0.12089     0.21498     0.06113    -0.00492    -0.25493
 PX  C   5   0.02019    -0.05986     0.05169    -0.03810    -0.03872    -0.03326
 PY  C   5  -0.01819    -0.00361    -0.01415    -0.02749    -0.02347     0.01392
 PZ  C   5   0.21085     0.11442    -0.04871     0.24083    -0.04995     0.08443
  
  S  C   6  -0.12037     0.06428    -0.17199    -0.12125    -0.07540     0.20253
 PX  C   6  -0.00100     0.03351    -0.04136     0.00909    -0.02295     0.02282
 PY  C   6   0.01341     0.02088    -0.00312     0.02983     0.07237     0.05327
 PZ  C   6  -0.27159    -0.14727     0.06717    -0.21030     0.06158    -0.08649
  
  S  C   7  -0.08967     0.23038    -0.15667     0.07707    -0.09874    -0.25579
 PX  C   7   0.00325    -0.01937     0.09747     0.01128     0.08823    -0.06374
 PY  C   7  -0.01484     0.04139     0.02521     0.01258     0.04503    -0.06464
 PZ  C   7   0.14257     0.06328    -0.04247    -0.16093     0.02465     0.01523
  
  S  C   8   0.11725    -0.21992     0.13536    -0.06076    -0.26809    -0.13054
 PX  C   8   0.00540    -0.03235    -0.06698    -0.02739    -0.09720     0.06206
 PY  C   8  -0.02119     0.02936    -0.06335    -0.00620    -0.02585     0.04855
 PZ  C   8  -0.13608    -0.07752     0.04214     0.14148    -0.02933    -0.00574
  
  S  C   9  -0.10964     0.26412    -0.00349     0.08971     0.37049    -0.03569
 PX  C   9  -0.00708     0.01150     0.07708     0.00289    -0.01856    -0.08982
 PY  C   9   0.00131    -0.01759     0.04710    -0.01919     0.04989     0.14497
 PZ  C   9   0.32877     0.12460    -0.04718    -0.01669    -0.02292     0.04042
  
  S  C  10   0.10089    -0.25803     0.01200    -0.08593    -0.09389     0.34337
 PX  C  10  -0.00116     0.00882    -0.07890     0.01897     0.07482     0.05674
 PY  C  10   0.01373    -0.02402    -0.04587    -0.00984    -0.14793    -0.05150
 PZ  C  10  -0.32252    -0.13289     0.05279     0.02397     0.01202    -0.03293
  
  S  C  11  -0.06302     0.23586     0.12202     0.02112    -0.07348    -0.30280
 PX  C  11   0.01834    -0.02990     0.06673    -0.04110    -0.06411     0.07851
 PY  C  11  -0.00965     0.04258     0.06271    -0.01896    -0.03320    -0.00661
 PZ  C  11   0.13453     0.02658    -0.01136     0.12878    -0.04166     0.07124
  
  S  H  12   0.03208    -0.12609    -0.07469    -0.01364     0.01256     0.15847
  
  S  C  13   0.08653    -0.24158    -0.13946    -0.03364    -0.28369    -0.09218
 PX  C  13  -0.00397    -0.00526    -0.07998     0.03236     0.07645    -0.04002
 PY  C  13  -0.01437     0.04114    -0.02754     0.02757     0.06552    -0.01933
 PZ  C  13  -0.14088    -0.04203     0.00183    -0.14226     0.05072    -0.05225
  
  S  H  14   0.05251    -0.12905     0.09881    -0.05336     0.02898     0.13137
  
  S  H  15  -0.06047     0.04902    -0.11572    -0.05969    -0.15063     0.02329
  
  S  H  16   0.05883    -0.07292     0.13513     0.03282     0.13512    -0.00505
  
  S  H  17  -0.06885     0.06407    -0.12995    -0.04080    -0.02727     0.13934
  
  S  H  18   0.07893    -0.04031     0.10609     0.07974     0.03386    -0.13527
  
  S  H  19  -0.06470     0.12489    -0.08663     0.04057     0.14754     0.04545
  
  S  H  20  -0.04869     0.14008     0.09046     0.02032     0.16080     0.01850
  
  S  C  21  -0.03355     0.17266     0.22891    -0.06852    -0.23595    -0.03215
 PX  C  21   0.01995    -0.05991    -0.04412    -0.00782     0.00226     0.07955
 PY  C  21  -0.00453     0.01092     0.02981    -0.01085    -0.04217     0.04074
 PZ  C  21  -0.22206    -0.08227     0.05456     0.23804    -0.07040     0.05350
  
  S  C  22   0.02649    -0.12517    -0.20778     0.07470     0.25829    -0.11324
 PX  C  22  -0.01224     0.02502     0.03409    -0.00306    -0.00838     0.02260
 PY  C  22  -0.00302     0.01107    -0.00301     0.00529    -0.02151    -0.10052
 PZ  C  22   0.29323     0.11112    -0.04795    -0.22589     0.05220    -0.04097
  
  S  C  23  -0.02662     0.12394     0.20629    -0.06814    -0.12065     0.28096
 PX  C  23   0.00143    -0.02052    -0.00646    -0.00188    -0.06112    -0.01453
 PY  C  23  -0.00198    -0.01987    -0.02978     0.01703     0.06371     0.01385
 PZ  C  23  -0.29053    -0.10931     0.05324     0.22533    -0.06045     0.04669
  
  S  C  24   0.02970    -0.16742    -0.21980     0.06125     0.00809    -0.23486
 PX  C  24  -0.00210     0.01921    -0.00874     0.01047     0.06555    -0.05477
 PY  C  24  -0.02421     0.05150     0.05488     0.00923     0.02348     0.02061
 PZ  C  24   0.21520     0.08403    -0.05481    -0.24324     0.07093    -0.06134
  
  S  H  25   0.01772    -0.09291    -0.13574     0.04344     0.12644    -0.01254
  
  S  H  26  -0.01535     0.08148     0.13076    -0.04877    -0.17726     0.05381
  
  S  H  27   0.02177    -0.08026    -0.13461     0.03873     0.06333    -0.20047
  
  S  H  28  -0.00911     0.08926     0.12455    -0.04490    -0.03128     0.11639
  
  S  C  29   0.05557    -0.25548    -0.26531     0.04649     0.15609     0.14357
 PX  C  29  -0.01425     0.03280    -0.00965     0.02581     0.07854    -0.02457
 PY  C  29   0.00260    -0.01461    -0.06241     0.02191    -0.04727    -0.13039
 PZ  C  29   0.05832     0.03963    -0.03835    -0.28670     0.08497    -0.07892
  
  S  C  30  -0.06585     0.24985     0.26916    -0.03058     0.07586     0.13128
 PX  C  30   0.01394    -0.00646     0.05116    -0.03657    -0.13076    -0.01393
 PY  C  30   0.01043    -0.03668    -0.02411    -0.00695     0.04563     0.11295
 PZ  C  30  -0.04947    -0.04620     0.02899     0.29758    -0.08983     0.07495




    ROOT NO.   55          56          57          58          59          60

             3.57544     3.65881     3.80471     3.89111     4.19076     4.25989
  
  
  S  C   1  -0.13560    -0.15673     0.36820    -0.07209     0.07020    -0.04827
 PX  C   1   0.03144     0.02110    -0.06498    -0.11670     0.11688    -0.06219
 PY  C   1  -0.01672    -0.03077     0.04595     0.07716    -0.04128     0.03395
 PZ  C   1  -0.07970     0.09203    -0.08001    -0.01555    -0.01101     0.00140
  
  S  C   2   0.02951     0.06896    -0.08200     0.25531    -0.27981     0.14675
 PX  C   2  -0.06067    -0.05569     0.16839     0.04457    -0.01946     0.00934
 PY  C   2  -0.04227    -0.00531     0.07165     0.00827     0.06498    -0.02924
 PZ  C   2   0.11617    -0.10178     0.07438     0.01319     0.03451    -0.00769
  
  S  C   3   0.10769     0.02225    -0.25714    -0.20483    -0.00559    -0.04592
 PX  C   3   0.02319     0.04118     0.02036    -0.02636    -0.17355     0.04552
 PY  C   3   0.05094     0.02526    -0.13449     0.14280    -0.07033     0.05962
 PZ  C   3  -0.21324     0.15052    -0.10526    -0.03936    -0.03180    -0.00377
  
  S  C   4  -0.09924    -0.02368     0.32257    -0.12803    -0.03059    -0.01705
 PX  C   4  -0.03643    -0.05231     0.04357     0.11888    -0.14970     0.06927
 PY  C   4   0.01215    -0.02086    -0.06235    -0.11685    -0.11265    -0.00601
 PZ  C   4   0.21915    -0.14885     0.07905     0.03484     0.00299     0.01026
  
  S  C   5  -0.02462    -0.07429    -0.04699     0.27298    -0.26353     0.13528
 PX  C   5   0.06623     0.03778    -0.17174    -0.01469     0.04949    -0.03018
 PY  C   5   0.03508     0.02815    -0.08685     0.00272    -0.03252     0.01403
 PZ  C   5  -0.11587     0.11078    -0.06593    -0.06252     0.02755    -0.02146
  
  S  C   6   0.13990     0.14735    -0.29717    -0.19504     0.10970    -0.07574
 PX  C   6  -0.00421     0.01818    -0.00441    -0.00067     0.02275    -0.00177
 PY  C   6  -0.04364    -0.02906     0.13338    -0.10209     0.10092    -0.05720
 PZ  C   6   0.06905    -0.10505     0.10089     0.05103    -0.00735     0.01218
  
  S  C   7  -0.07764    -0.11874     0.05111     0.16791     0.32948    -0.04888
 PX  C   7   0.01930    -0.02807    -0.12693    -0.07962     0.05536    -0.05007
 PY  C   7   0.01360    -0.03647    -0.08112    -0.05361    -0.04916    -0.01893
 PZ  C   7   0.22371    -0.12271     0.04784     0.00564     0.00596     0.00421
  
  S  C   8   0.05744     0.12171    -0.05530     0.14835     0.34096    -0.03435
 PX  C   8  -0.01866     0.03178     0.15049    -0.05132    -0.03688    -0.02297
 PY  C   8  -0.01698     0.00859     0.09286    -0.01580     0.06616    -0.01591
 PZ  C   8  -0.21360     0.12739    -0.04782    -0.01244     0.01037    -0.00844
  
  S  C   9   0.00416    -0.14926    -0.23034    -0.01596    -0.04423     0.08896
 PX  C   9   0.01940     0.03332    -0.07577     0.08849     0.16656     0.00798
 PY  C   9   0.01423     0.09441     0.05124     0.06743     0.00752     0.14353
 PZ  C   9   0.30567    -0.14790     0.05387     0.01680     0.01411     0.00949
  
  S  C  10   0.00086     0.17621     0.22377     0.03226    -0.07974     0.13072
 PX  C  10  -0.02985    -0.05984    -0.02327     0.10299     0.08641     0.11184
 PY  C  10  -0.01778     0.01653     0.09000     0.05805     0.11199    -0.05511
 PZ  C  10  -0.30360     0.15712    -0.04557    -0.00753    -0.01100    -0.00095
  
  S  C  11   0.08914     0.04234    -0.02079    -0.18093    -0.13532    -0.28727
 PX  C  11   0.01996     0.11619     0.11703    -0.04830    -0.03812     0.02010
 PY  C  11   0.01717     0.06714     0.04432    -0.02808     0.00448     0.06429
 PZ  C  11   0.22196    -0.10061     0.03783     0.01424     0.01412     0.02382
  
  S  H  12  -0.06642    -0.03730     0.01481     0.11293     0.13503     0.24999
  
  S  C  13  -0.07593    -0.12656     0.06802    -0.17163    -0.16363    -0.29050
 PX  C  13  -0.02739    -0.11338    -0.09101    -0.05208     0.01891     0.08528
 PY  C  13  -0.00416    -0.07493    -0.05627    -0.05095    -0.04964    -0.06270
 PZ  C  13  -0.23956     0.10187    -0.03522    -0.01059    -0.00919    -0.00832
  
  S  H  14   0.06220     0.08326    -0.04831    -0.11458    -0.30478     0.02546
  
  S  H  15   0.08491     0.10254    -0.24184     0.05232    -0.00885     0.02341
  
  S  H  16  -0.02520    -0.04275     0.04619    -0.15405     0.25445    -0.11834
  
  S  H  17   0.01792     0.05311     0.02980    -0.16675     0.23527    -0.10779
  
  S  H  18  -0.09098    -0.08865     0.18740     0.13217    -0.03619     0.04248
  
  S  H  19  -0.04261    -0.09788     0.03528    -0.09995    -0.31803     0.01252
  
  S  H  20   0.05512     0.10024    -0.04782     0.11543     0.17412     0.28135
  
  S  C  21  -0.03750    -0.03709     0.05423    -0.25360     0.02411     0.31357
 PX  C  21  -0.07878    -0.15088    -0.07443     0.01281     0.01621     0.05650
 PY  C  21  -0.03962    -0.08016    -0.02959     0.00179    -0.00169    -0.02225
 PZ  C  21   0.15321    -0.06151     0.02097    -0.00772     0.00381     0.01823
  
  S  C  22   0.16143     0.30383     0.08182     0.14521    -0.01024    -0.14169
 PX  C  22   0.00059     0.00465     0.00354     0.02491     0.00986    -0.00105
 PY  C  22   0.04271     0.07970     0.05062    -0.12562     0.00265     0.14374
 PZ  C  22  -0.12502     0.03677    -0.01724    -0.00244    -0.00001     0.00218
  
  S  C  23  -0.15836    -0.27638    -0.11367     0.16416     0.01417    -0.14305
 PX  C  23  -0.03859    -0.09253    -0.02939    -0.08242     0.02185     0.11714
 PY  C  23   0.02891     0.05356     0.00684     0.08938     0.00335    -0.08177
 PZ  C  23   0.12048    -0.04838     0.01353     0.00383    -0.00142    -0.00874
  
  S  C  24   0.02735    -0.02021    -0.01036    -0.25829     0.04413     0.32228
 PX  C  24   0.07529     0.15903     0.06555    -0.00431    -0.01239     0.01320
 PY  C  24   0.04643     0.08002     0.03978     0.01247     0.00066     0.04312
 PZ  C  24  -0.15632     0.06601    -0.01856    -0.01228     0.00271     0.02131
  
  S  H  25   0.02818     0.02122    -0.03344     0.14189    -0.03376    -0.25618
  
  S  H  26  -0.10361    -0.19891    -0.05154    -0.11620    -0.00768     0.07162
  
  S  H  27   0.10056     0.17997     0.07934    -0.13380    -0.02543     0.07840
  
  S  H  28  -0.02097     0.01433     0.01483     0.13995    -0.04745    -0.25166
  
  S  C  29  -0.11742    -0.25630    -0.16929     0.16742     0.05841    -0.00063
 PX  C  29   0.05563     0.07871     0.00363     0.09864    -0.02418    -0.17103
 PY  C  29  -0.01439    -0.09768    -0.05025    -0.11425    -0.04555    -0.07744
 PZ  C  29  -0.25830     0.10304    -0.03778    -0.00041    -0.00574    -0.01455
  
  S  C  30   0.12301     0.30316     0.13232     0.17586     0.01301    -0.02990
 PX  C  30  -0.01242     0.01233     0.05565    -0.03733    -0.07753    -0.17286
 PY  C  30  -0.05292    -0.08095    -0.05743     0.14298     0.01537    -0.09434
 PZ  C  30   0.26194    -0.12173     0.02940     0.00326     0.00313    -0.00236




    ROOT NO.   61          62          63          64          65          66

             5.24287     5.36418     5.46943     5.69558     6.20263     6.41735
  
  
  S  C   1   0.11277    -0.02368    -0.28779     0.09712     0.05614    -0.02367
 PX  C   1  -0.12932     0.01504     0.07307    -0.15123    -0.10293     0.04010
 PY  C   1   0.00065     0.01310     0.28283     0.00039    -0.00982     0.00807
 PZ  C   1  -0.00711     0.00209     0.03405    -0.00684    -0.00445     0.00175
  
  S  C   2   0.16415    -0.01688    -0.08415     0.17623     0.11390    -0.04480
 PX  C   2   0.09854    -0.01655    -0.19046     0.08884     0.05663    -0.02618
 PY  C   2  -0.05447     0.01105     0.10453    -0.13564    -0.18490     0.10306
 PZ  C   2  -0.01442     0.00252     0.01808    -0.02081    -0.02261     0.01254
  
  S  C   3  -0.04807    -0.00308     0.01796     0.06148     0.15459    -0.10039
 PX  C   3   0.16362    -0.01602     0.03608     0.07453    -0.09458     0.08355
 PY  C   3   0.03715    -0.00244    -0.05448     0.11708     0.17724    -0.10697
 PZ  C   3   0.00911    -0.00289    -0.01101     0.01612     0.01788    -0.01095
  
  S  C   4   0.06727    -0.00671     0.02563    -0.06819    -0.19115     0.12495
 PX  C   4  -0.12101     0.01200    -0.02368    -0.13834    -0.08780     0.04161
 PY  C   4  -0.10154     0.00160     0.04385    -0.01155     0.14175    -0.11759
 PZ  C   4  -0.00805     0.00178     0.00758    -0.00436     0.00226    -0.00220
  
  S  C   5  -0.16684     0.01392    -0.09025    -0.18979    -0.12891     0.05822
 PX  C   5  -0.02121    -0.00216    -0.04114     0.06802     0.16080    -0.11127
 PY  C   5  -0.09506     0.00128    -0.21990    -0.15261    -0.16575     0.09846
 PZ  C   5   0.01172    -0.00197    -0.00785     0.01167     0.00652    -0.00270
  
  S  C   6  -0.09242    -0.00630    -0.30695    -0.09151    -0.04296     0.01202
 PX  C   6   0.05524     0.00747     0.29405     0.08635     0.06377    -0.02365
 PY  C   6   0.11679    -0.01584    -0.09025     0.13630     0.09875    -0.04316
 PZ  C   6   0.01786     0.00092     0.05073     0.02088     0.01274    -0.00448
  
  S  C   7  -0.22510     0.02299    -0.05713    -0.07381     0.11200    -0.09159
 PX  C   7  -0.06143    -0.00458    -0.03938     0.03441     0.12134    -0.09198
 PY  C   7   0.10020    -0.02600     0.02197     0.11379    -0.13008     0.17483
 PZ  C   7   0.00415    -0.00024     0.00481     0.00528    -0.00051     0.00185
  
  S  C   8   0.20536    -0.00760    -0.04451     0.09378    -0.09751     0.10204
 PX  C   8  -0.02624    -0.01211    -0.00523    -0.11985     0.01932    -0.14692
 PY  C   8   0.10557    -0.00566    -0.04527     0.02938    -0.19099     0.21812
 PZ  C   8   0.01366    -0.00165    -0.00358     0.00382    -0.00619     0.00446
  
  S  C   9  -0.00460     0.01520     0.02236     0.15630    -0.01313     0.17623
 PX  C   9   0.15296    -0.00730    -0.01745     0.06815    -0.08514     0.08784
 PY  C   9   0.06645     0.02123     0.01483    -0.13090    -0.00298    -0.14461
 PZ  C   9   0.00478     0.00114    -0.00044    -0.00380    -0.00353    -0.00543
  
  S  C  10  -0.02347     0.02806     0.02108    -0.15758     0.03893    -0.12541
 PX  C  10  -0.16299     0.02692    -0.00599     0.08608     0.07134     0.10352
[...]
  S   H   18    0.0805   -0.0305   -0.0488   -0.0644   -0.0124    0.0023    0.2859   -0.0030
  S   H   19    0.1833   -0.2488    0.2567    0.0686    0.1193   -0.0071    0.0581   -0.2221
  S   H   20   -0.1168   -0.2726    0.2261   -0.1340   -0.1033    0.0356   -0.0125    0.1819
  S   C   21   -0.1301   -0.0769   -0.0248    0.0117    0.0074    0.0496    0.0002   -0.0088
  Px  C   21   -0.1236   -0.0983   -0.1237    0.0497    0.3284   -0.0720    0.0018   -0.0373
  Py  C   21    0.1396    0.1061    0.0588   -0.0299   -0.1166    0.2644    0.0004   -0.0652
  Pz  C   21   -0.0093   -0.0058   -0.0040    0.0017    0.0094   -0.0017    0.0001   -0.0012
  S   C   22   -0.0512   -0.0328    0.0206   -0.0066   -0.0529   -0.1144   -0.0002    0.0397
  Px  C   22   -0.0794   -0.0555    0.0208   -0.0103   -0.0556    0.5081    0.0027   -0.1375
  Py  C   22   -0.0965   -0.0525   -0.0240    0.0078    0.0557   -0.0921    0.0011    0.0066
  Pz  C   22    0.0018    0.0011   -0.0005    0.0000    0.0014    0.0146    0.0000   -0.0041
  S   C   23    0.0510    0.0207    0.0238   -0.0089   -0.0505    0.1204    0.0001   -0.0062
  Px  C   23    0.1319    0.0837   -0.0015   -0.0055    0.0400   -0.1956   -0.0013   -0.0455
  Py  C   23    0.0215    0.0102    0.0325   -0.0144   -0.0703   -0.4793   -0.0007    0.0654
  Pz  C   23   -0.0041   -0.0035    0.0016   -0.0006   -0.0042    0.0103    0.0000   -0.0017
  S   C   24    0.1530    0.1037   -0.0222    0.0091    0.0329   -0.0505    0.0003   -0.0428
  Px  C   24   -0.0563   -0.0292   -0.0207    0.0041    0.0740   -0.1920   -0.0006   -0.0373
  Py  C   24    0.1749    0.1685   -0.0916    0.0322    0.3306    0.2178   -0.0059    0.1830
  Pz  C   24    0.0165    0.0143   -0.0066    0.0027    0.0174    0.0104   -0.0002    0.0063
  S   H   25    0.2085    0.1451    0.1025   -0.0460   -0.2159    0.1622   -0.0001   -0.0242
  S   H   26    0.0946    0.0639   -0.0169    0.0079    0.0401   -0.3082   -0.0018    0.0823
  S   H   27   -0.1009   -0.0581   -0.0249    0.0137    0.0281    0.3045    0.0010   -0.0204
  S   H   28   -0.2243   -0.1820    0.0729   -0.0284   -0.2263   -0.1751    0.0033   -0.1100
  S   C   29   -0.1475   -0.1250   -0.0836    0.0247    0.2803    0.0103   -0.0013   -0.0110
  Px  C   29    0.0881    0.0590    0.0011   -0.0073    0.1218   -0.0749    0.0043   -0.0486
  Py  C   29   -0.1385   -0.1653   -0.0235    0.0334   -0.1609   -0.0306   -0.0007   -0.0712
  Pz  C   29   -0.0025   -0.0041   -0.0016    0.0003    0.0056    0.0004    0.0000   -0.0017
  S   C   30    0.1433    0.1513   -0.0531    0.0068    0.2947   -0.0019   -0.0006    0.0143
  Px  C   30    0.0555    0.0795    0.0427   -0.0140   -0.0894    0.0665   -0.0031    0.2122
  Py  C   30   -0.1650   -0.1480   -0.0076   -0.0115    0.1554    0.0511   -0.0054    0.0770
  Pz  C   30   -0.0091   -0.0093    0.0044   -0.0016   -0.0107    0.0014   -0.0001    0.0036


   Root No.      73        74        75        76        77        78        79        80

                73 ????   74 ????   29 a      26 b      27 b      30 a      31 a      28 b   

                 9.362     9.578    10.110    10.707    10.969    11.666    11.801    12.196
  
  S   C    1    0.0228   -0.0458   -0.0522   -0.0688   -0.0367    0.0239   -0.0068    0.0139
  Px  C    1    0.1592   -0.1689    0.0879   -0.2165    0.1471   -0.1654   -0.1046    0.1926
  Py  C    1   -0.0266   -0.0597   -0.2555   -0.0584   -0.2149    0.1814    0.0530   -0.0982
  Pz  C    1   -0.0022   -0.0066   -0.0228   -0.0067   -0.0177    0.0144    0.0036   -0.0069
  S   C    2   -0.0881    0.0650   -0.0775    0.0410   -0.0757    0.0623   -0.0002   -0.0005
  Px  C    2    0.1380   -0.1650    0.0141   -0.2435    0.0681   -0.0985   -0.1147    0.2137
  Py  C    2   -0.2354    0.1190   -0.1998   -0.0389   -0.1467    0.1001   -0.0862    0.1386
  Pz  C    2   -0.0177    0.0113   -0.0135    0.0022   -0.0119    0.0094   -0.0040    0.0066
  S   C    3   -0.0178    0.0392   -0.0082    0.0710   -0.0358    0.0381    0.0008   -0.0022
  Px  C    3   -0.2398    0.1002   -0.2523   -0.0450   -0.0099   -0.1833    0.1258   -0.1366
  Py  C    3   -0.0786    0.0106   -0.1296   -0.0920   -0.1892    0.2180   -0.2384    0.3519
  Pz  C    3   -0.0160    0.0080   -0.0187   -0.0024   -0.0106    0.0023   -0.0029    0.0075
  S   C    4   -0.0381    0.0374   -0.0046    0.0618    0.0319   -0.0376   -0.0004    0.0029
  Px  C    4   -0.0627    0.0777    0.2584   -0.0903    0.1761   -0.0771    0.1149   -0.1928
  Py  C    4   -0.0446    0.0915    0.1368    0.0208   -0.0933    0.2824   -0.2483    0.3290
  Pz  C    4    0.0003   -0.0002   -0.0033    0.0030   -0.0080    0.0113   -0.0114    0.0163
  S   C    5   -0.0696    0.0660    0.0709    0.0408    0.0842   -0.0735    0.0006    0.0024
  Px  C    5   -0.0057    0.0150    0.1804   -0.1489    0.0897   -0.0090    0.1155   -0.2033
  Py  C    5    0.2342   -0.2072   -0.1035   -0.1755   -0.1559    0.1661    0.0391   -0.0907
  Pz  C    5    0.0071   -0.0069   -0.0073   -0.0047   -0.0083    0.0074    0.0001   -0.0007
  S   C    6    0.0755   -0.0520    0.0631   -0.0729    0.0336   -0.0127    0.0025   -0.0086
  Px  C    6    0.2590   -0.1567    0.1901   -0.1732    0.0844   -0.0278    0.0019   -0.0103
  Py  C    6    0.0504   -0.0893   -0.1929   -0.1240   -0.2460    0.2569    0.1071   -0.2022
  Pz  C    6    0.0156   -0.0127   -0.0039   -0.0142   -0.0119    0.0146    0.0071   -0.0135
  S   C    7    0.1127   -0.0078    0.0701    0.0839   -0.0421    0.0902    0.0154    0.0100
  Px  C    7   -0.1806    0.1099   -0.1732    0.0394   -0.0375   -0.0961    0.1487   -0.1460
  Py  C    7    0.3166    0.0208    0.1038    0.2436   -0.1134    0.1597    0.1198   -0.0292
  Pz  C    7   -0.0198    0.0075   -0.0167   -0.0022    0.0003   -0.0124    0.0087   -0.0099
  S   C    8    0.0060   -0.0132   -0.0681    0.0732    0.0422   -0.0892   -0.0080   -0.0145
  Px  C    8   -0.0424    0.0825    0.0146    0.2176    0.1284   -0.0695   -0.1877    0.1277
  Py  C    8   -0.0748    0.0924    0.1965   -0.0890   -0.0291    0.1764   -0.0800    0.1326
  Pz  C    8   -0.0040    0.0046    0.0013    0.0083    0.0060   -0.0036   -0.0075    0.0059
  S   C    9    0.0095   -0.0395   -0.0425   -0.0151   -0.0034   -0.0410    0.0031   -0.0044
  Px  C    9   -0.0542    0.0601   -0.0427    0.2498    0.1811   -0.1533   -0.1772    0.1064
  Py  C    9   -0.0474   -0.0076    0.1108    0.1252    0.1241    0.2513    0.3257    0.0096
  Pz  C    9   -0.0035    0.0033    0.0007    0.0139    0.0102    0.0002    0.0004    0.0051
  S   C   10   -0.0069   -0.0346    0.0331   -0.0130    0.0016    0.0279   -0.0027   -0.0014
  Px  C   10    0.2896    0.0149   -0.0715    0.2610   -0.1949   -0.1295   -0.1803   -0.0483
  Py  C   10    0.1253    0.0622    0.1020    0.1545   -0.0761    0.2773    0.3257   -0.0684
  Pz  C   10    0.0115   -0.0002    0.0000    0.0098   -0.0076    0.0007   -0.0038   -0.0018
  S   C   11   -0.0989   -0.0427    0.0683   -0.0724    0.0329    0.0679   -0.0016   -0.0178
  Px  C   11    0.1988   -0.0237   -0.0150    0.2132   -0.1479   -0.0658   -0.1934   -0.0719
  Py  C   11   -0.2825   -0.1879    0.1948   -0.0876    0.0015    0.1416   -0.1034   -0.1141
  Pz  C   11    0.0062   -0.0023   -0.0005    0.0082   -0.0060   -0.0031   -0.0070   -0.0031
  S   H   12   -0.2035   -0.0920    0.1078   -0.0885    0.0428    0.0986   -0.0028   -0.0430
  S   C   13    0.0243   -0.0564   -0.0747   -0.0827   -0.0434   -0.0777    0.0061    0.0089
  Px  C   13    0.0058   -0.1690   -0.1476    0.0168    0.0679   -0.0941    0.1969    0.1175
  Py  C   13   -0.0475    0.0852    0.1029    0.2104    0.1288    0.1214    0.0990    0.0157
  Pz  C   13   -0.0014   -0.0019   -0.0004    0.0070    0.0065    0.0022    0.0078    0.0035
  S   H   14    0.2078   -0.0221    0.1009    0.0949   -0.0439    0.1097    0.0161    0.0315
  S   H   15    0.0343   -0.0838   -0.1049   -0.0955   -0.0643    0.0421   -0.0062    0.0095
  S   H   16   -0.1561    0.1002   -0.1100    0.0376   -0.0983    0.0841   -0.0172    0.0197
  S   H   17   -0.1174    0.1068    0.1038    0.0465    0.1069   -0.0924    0.0126   -0.0107
  S   H   18    0.1557   -0.0924    0.1180   -0.0993    0.0554   -0.0235    0.0003   -0.0028
  S   H   19    0.0252   -0.0220   -0.0913    0.0935    0.0495   -0.1091   -0.0138   -0.0329
  S   H   20    0.0271   -0.0847   -0.0903   -0.0836   -0.0454   -0.0917    0.0046    0.0288
  S   C   21    0.0535    0.1003   -0.0625   -0.0371    0.1022    0.0565   -0.0025    0.0054
  Px  C   21   -0.1189   -0.0629    0.1423   -0.1534   -0.1391   -0.0478    0.1577    0.1793
  Py  C   21    0.1503    0.3538   -0.1021   -0.1925    0.1870    0.1187    0.0606    0.0998
  Pz  C   21   -0.0030   -0.0009    0.0030   -0.0042   -0.0020   -0.0002    0.0041    0.0049
  S   C   22   -0.0072   -0.0848   -0.0387    0.0730    0.0438    0.0166   -0.0057   -0.0039
  Px  C   22    0.0053    0.2306    0.1153   -0.1630   -0.1101   -0.0388    0.0062   -0.0018
  Py  C   22    0.0828    0.1619   -0.1457   -0.1529    0.2851    0.1814    0.1405    0.2034
  Pz  C   22    0.0010    0.0087    0.0029   -0.0065   -0.0024   -0.0006    0.0005    0.0004
  S   C   23   -0.0428   -0.0803    0.0400    0.0742   -0.0397   -0.0141    0.0049    0.0130
  Px  C   23    0.0832    0.2583    0.0663   -0.2066   -0.2052   -0.1456   -0.1226   -0.1998
  Py  C   23    0.1086    0.1008   -0.1711   -0.0722    0.2340    0.1231    0.0683    0.0998
  Pz  C   23   -0.0027   -0.0031    0.0043    0.0030   -0.0054   -0.0027   -0.0012   -0.0016
  S   C   24    0.0193    0.0969    0.0601   -0.0324   -0.1025   -0.0569    0.0035   -0.0038
  Px  C   24    0.0923    0.2640    0.0145   -0.2348   -0.1061   -0.0870   -0.1333   -0.2121
  Py  C   24   -0.0311   -0.2428   -0.1838   -0.0449    0.2162    0.0999   -0.1091   -0.1266
  Pz  C   24   -0.0025   -0.0114   -0.0063    0.0016    0.0094    0.0051   -0.0011   -0.0006
  S   H   25    0.1106    0.1984   -0.0917   -0.0533    0.1384    0.0793   -0.0174   -0.0035
  S   H   26    0.0000   -0.1337   -0.0685    0.0947    0.0644    0.0235   -0.0056   -0.0002
  S   H   27   -0.0806   -0.1309    0.0633    0.0996   -0.0501   -0.0159    0.0063    0.0133
  S   H   28    0.0414    0.2012    0.1026   -0.0396   -0.1479   -0.0818    0.0228    0.0092
  S   C   29   -0.0016    0.0455   -0.0029   -0.0646    0.0337    0.0225    0.0078    0.0087
  Px  C   29   -0.1745   -0.1452    0.2141   -0.1012   -0.2398   -0.0929    0.1563    0.1674
  Py  C   29   -0.1210   -0.1195    0.1315    0.0241    0.0888    0.2352   -0.3071   -0.2619
  Pz  C   29   -0.0026   -0.0009    0.0032   -0.0016    0.0003    0.0032   -0.0024   -0.0022
  S   C   30    0.0138    0.0414   -0.0001   -0.0636   -0.0318   -0.0184   -0.0146   -0.0187
  Px  C   30    0.0358   -0.1919   -0.2236   -0.0661    0.0370   -0.1631    0.1783    0.1048
  Py  C   30   -0.0011   -0.0485   -0.1104   -0.0948    0.2413    0.1998   -0.2993   -0.3052
  Pz  C   30    0.0007   -0.0040   -0.0045   -0.0004    0.0033   -0.0002   -0.0012   -0.0021


   Root No.      81        82        83        84

                32 a      33 a      29 b      30 b   

                12.690    12.740    13.159    14.533
  
  S   C    1   -0.0670    0.0138   -0.0174    0.0402
  Px  C    1   -0.2250   -0.1554   -0.1807    0.1033
  Py  C    1   -0.0171    0.1496    0.0862    0.0273
  Pz  C    1   -0.0024    0.0115    0.0064    0.0023
  S   C    2   -0.0078    0.0155    0.0077    0.0258
  Px  C    2   -0.2843   -0.1440   -0.1928    0.1519
  Py  C    2   -0.1712   -0.0373   -0.0675    0.1242
  Pz  C    2   -0.0070   -0.0012   -0.0020    0.0063
  S   C    3    0.0242   -0.0071   -0.0009    0.0164
  Px  C    3   -0.2605   -0.0131   -0.2726    0.2332
  Py  C    3   -0.1650   -0.1149   -0.0174    0.0994
  Pz  C    3   -0.0208   -0.0062   -0.0158    0.0179
  S   C    4    0.0142   -0.0097    0.0030    0.0199
  Px  C    4   -0.1896    0.2886    0.0897    0.2059
  Py  C    4   -0.0995    0.0362    0.1845    0.1167
  Pz  C    4    0.0028   -0.0076    0.0034   -0.0018
  S   C    5   -0.0105   -0.0137   -0.0177    0.0224
  Px  C    5   -0.1924    0.3106    0.0972    0.1787
  Py  C    5   -0.0756    0.1934    0.1013    0.0567
  Pz  C    5    0.0001    0.0026    0.0023   -0.0012
  S   C    6   -0.0623    0.0432    0.0043    0.0409
  Px  C    6   -0.1289    0.0802    0.0043    0.0791
  Py  C    6   -0.0557    0.3111    0.1722    0.0683
  Pz  C    6   -0.0070    0.0218    0.0107    0.0060
  S   C    7    0.0488   -0.0391    0.0056    0.0143
  Px  C    7   -0.2124   -0.0393   -0.2661    0.2466
  Py  C    7   -0.0191   -0.1276   -0.1173    0.1524
  Pz  C    7   -0.0156   -0.0007   -0.0173    0.0147
  S   C    8    0.0530   -0.0019    0.0093    0.0164
  Px  C    8   -0.0432    0.2035    0.2211    0.2538
  Py  C    8   -0.1442    0.0854    0.1131    0.1120
  Pz  C    8   -0.0023    0.0073    0.0087    0.0107
  S   C    9    0.0505   -0.0291    0.0097   -0.0005
  Px  C    9    0.0154    0.1736    0.2337    0.2645
  Py  C    9   -0.0688   -0.2650    0.1163    0.1545
  Pz  C    9   -0.0023    0.0013    0.0128    0.0150
  S   C   10    0.0590   -0.0093    0.0089   -0.0051
  Px  C   10    0.0838    0.1239   -0.2133    0.2547
  Py  C   10   -0.1284   -0.2611   -0.1393    0.1539
  Pz  C   10    0.0032    0.0008   -0.0084    0.0101
  S   C   11    0.0576   -0.0259   -0.0065   -0.0050
  Px  C   11    0.1597    0.1083   -0.2197    0.2559
  Py  C   11    0.1936   -0.0296   -0.1441    0.1352
  Pz  C   11    0.0053    0.0037   -0.0078    0.0094
  S   H   12    0.0448   -0.0452   -0.0177    0.0031
  S   C   13    0.0567   -0.0154    0.0204   -0.0042
  Px  C   13    0.1132   -0.1591    0.2835    0.2693
  Py  C   13   -0.0573   -0.0888    0.1090    0.1529
  Pz  C   13    0.0008   -0.0065    0.0103    0.0113
  S   H   14    0.0383   -0.0514    0.0173    0.0027
  S   H   15   -0.0714    0.0277   -0.0083    0.0392
  S   H   16   -0.0111    0.0166    0.0185    0.0180
  S   H   17   -0.0089   -0.0176   -0.0273    0.0130
  S   H   18   -0.0701    0.0361   -0.0035    0.0392
  S   H   19    0.0492    0.0223    0.0018    0.0114
  S   H   20    0.0500    0.0089    0.0238    0.0005
  S   C   21   -0.0029    0.0164   -0.0165   -0.0267
  Px  C   21    0.3196    0.0920   -0.1172    0.1825
  Py  C   21    0.1820    0.0944   -0.1218    0.0572
  Pz  C   21    0.0077    0.0029   -0.0034    0.0036
  S   C   22   -0.0665    0.0098    0.0056   -0.0414
  Px  C   22    0.1277   -0.0301   -0.0018    0.0800
  Py  C   22    0.2460    0.1848   -0.2022    0.0691
  Pz  C   22    0.0054   -0.0005   -0.0008    0.0030
  S   C   23   -0.0558    0.0314   -0.0173   -0.0428
  Px  C   23    0.0464   -0.2534    0.2060    0.1121
  Py  C   23    0.1090    0.0906   -0.0943    0.0277
  Pz  C   23   -0.0030   -0.0010    0.0013   -0.0011
  S   C   24   -0.0216   -0.0072    0.0132   -0.0270
  Px  C   24    0.0948   -0.2714    0.2067    0.1570
  Py  C   24    0.1073   -0.1298    0.0667    0.1334
  Pz  C   24    0.0022   -0.0000   -0.0010    0.0018
  S   H   25    0.0082    0.0202   -0.0316   -0.0153
  S   H   26   -0.0687    0.0173   -0.0013   -0.0404
  S   H   27   -0.0640    0.0304   -0.0135   -0.0415
  S   H   28   -0.0256   -0.0101    0.0267   -0.0185
  S   C   29    0.0144   -0.0014    0.0079   -0.0238
  Px  C   29    0.3140    0.0798   -0.1161    0.2153
  Py  C   29    0.1437   -0.0332   -0.2047    0.1336
  Pz  C   29    0.0038   -0.0004   -0.0032    0.0031
  S   C   30    0.0099   -0.0080   -0.0092   -0.0251
  Px  C   30    0.1513   -0.1649    0.2830    0.2427
  Py  C   30    0.0809   -0.1789    0.0152    0.1147
  Pz  C   30    0.0031   -0.0046    0.0046    0.0059


              NET ATOMIC CHARGES AND DIPOLE CONTRIBUTIONS

  ATOM NO.   TYPE          CHARGE      No. of ELECS.   s-Pop       p-Pop       
    1          C          -0.032801        4.0328     1.09910     2.93370
    2          C          -0.028438        4.0284     1.10112     2.92732
    3          C           0.015924        3.9841     1.06267     2.92141
    4          C           0.009649        3.9904     1.06999     2.92036
    5          C          -0.024442        4.0244     1.09255     2.93190
    6          C          -0.025072        4.0251     1.09319     2.93188
    7          C          -0.032496        4.0325     1.09641     2.93609
    8          C          -0.038309        4.0383     1.10859     2.92972
    9          C           0.012076        3.9879     1.06337     2.92455
   10          C           0.011806        3.9882     1.06425     2.92394
   11          C          -0.044192        4.0442     1.10395     2.94024
   12          H           0.026019        0.9740     0.97398
   13          C          -0.034068        4.0341     1.10448     2.92959
   14          H           0.028253        0.9717     0.97175
   15          H           0.029652        0.9703     0.97035
   16          H           0.013366        0.9866     0.98663
   17          H           0.019427        0.9806     0.98057
   18          H           0.027200        0.9728     0.97280
   19          H           0.026240        0.9738     0.97376
   20          H           0.016263        0.9837     0.98374
   21          C          -0.026156        4.0262     1.08904     2.93712
   22          C          -0.027619        4.0276     1.10195     2.92567
   23          C          -0.029903        4.0299     1.10369     2.92622
   24          C          -0.024450        4.0245     1.08314     2.94131
   25          H           0.026135        0.9739     0.97387
   26          H           0.023351        0.9766     0.97665
   27          H           0.022843        0.9772     0.97716
   28          H           0.028207        0.9718     0.97179
   29          C           0.012469        3.9875     1.06564     2.92189
   30          C           0.019065        3.9809     1.05599     2.92494
 DIPOLE           X         Y         Z       TOTAL
 POINT-CHG.     0.067     0.067    -0.019     0.097
 HYBRID        -0.033    -0.028    -0.165     0.170
 SUM            0.034     0.039    -0.184     0.191


          ATOMIC ORBITAL ELECTRON POPULATIONS

     Atom    s        px        py        pz   
    1  C   1.09910   0.98195   0.95115   1.00060
    2  C   1.10112   0.97557   0.94629   1.00546
    3  C   1.06267   0.96276   0.97419   0.98447
    4  C   1.06999   0.96595   0.97248   0.98193
    5  C   1.09255   0.97083   0.95376   1.00731
    6  C   1.09319   0.94546   0.99239   0.99404
    7  C   1.09641   0.96097   0.95771   1.01740
    8  C   1.10859   0.96580   0.94994   1.01398
    9  C   1.06337   0.97039   0.97164   0.98252
   10  C   1.06425   0.97304   0.97388   0.97702
   11  C   1.10395   0.96969   0.94980   1.02075
   12  H   0.97398
   13  C   1.10448   0.96381   0.94783   1.01795
   14  H   0.97175
   15  H   0.97035
   16  H   0.98663
   17  H   0.98057
   18  H   0.97280
   19  H   0.97376
   20  H   0.98374
   21  C   1.08904   0.97456   0.95573   1.00682
   22  C   1.10195   0.93964   0.98826   0.99777
   23  C   1.10369   0.97619   0.95059   0.99944
   24  C   1.08314   0.97787   0.95814   1.00530
   25  H   0.97387
   26  H   0.97665
   27  H   0.97716
   28  H   0.97179
   29  C   1.06564   0.96841   0.96900   0.98449
   30  C   1.05599   0.97269   0.96785   0.98440

 **********************
 *                    *
 * JOB ENDED NORMALLY *
 *                    *
 **********************



 TOTAL JOB TIME:             0.97 SECONDS

 == MOPAC DONE ==


          MOPAC Job: "./tetraceneTraj/tetracene_588.mop" ended normally on Feb 15, 2023, at 11:25.

rm: cannot remove ./tetraceneTraj/tetracene_588.cim: No such file or directory
rm: cannot remove ./tetraceneTraj/tetracene_588.end: No such file or directory
rm: cannot remove ./tetraceneTraj/tetracene_588.log: No such file or directory
rm: cannot remove ./tetraceneTraj/tetracene_588.temp: No such file or directory
rm: cannot remove ./tetraceneTraj/tetracene_588.ple: No such file or directory
rm: cannot remove ./tetraceneTraj/tetracene_588.sts: No such file or directory
