 *******************************************************************************
 ** Site#:    0         For non-commercial use only    Version 20.173L 64BITS **
 *******************************************************************************
 ** Cite this program as: MOPAC2016, Version: 20.173L, James J. P. Stewart,   **
 ** Stewart Computational Chemistry, web-site: HTTP://OpenMOPAC.net.          **
 *******************************************************************************
 **                                                                           **
 **                                MOPAC2016                                  **
 **                                                                           **
 *******************************************************************************

                              INDO CALCULATION RESULTS

 *******************************************************************************
 *  CALCULATION DONE:                                Wed Feb 15 11:23:46 2023  *
 *  INDO       - The INDO Hamiltonian to be used
 *
 *
 *
 *                 CHARGE ON SYSTEM = 0
 *
 *
 *
 *  C.I.=(N,M) - 3 DOUBLY FILLED LEVELS USED IN A C.I. INVOLVING 6 M.O.'S
 *  T=         - A TIME OF 172800.0 SECONDS REQUESTED
 *  DUMP=N     - RESTART FILE WRITTEN EVERY 7200.0 SECONDS REQUESTED
 *  RELSCF     - DEFAULT SCF CRITERION MULTIPLIED BY 0.0000
 *              (DEFAULT SCF CRITERION = 0.00010)
 *  ALLVEC     - PRINT ALL EIGENVECTORS
 **********
 *  WARNING: Specified print options may not behave as expected with INDO
 **********
 *******************************************************************************
INDO C.I.=(6,3) AllVEC CHARGE=0 RELSCF=0.000001


   ATOM   CHEMICAL          X               Y               Z
  NUMBER   SYMBOL      (ANGSTROMS)     (ANGSTROMS)     (ANGSTROMS)
 
     1       C         18.54364467  *  19.48425878  *  22.36993280  *
     2       C         19.94644171  *  19.44057190  *  22.39560355  *
     3       C         20.70842016  *  20.67007826  *  22.46213591  *
     4       C         19.95731749  *  21.99226350  *  22.47656333  *
     5       C         18.51083063  *  21.91871084  *  22.43770368  *
     6       C         17.82955751  *  20.72987920  *  22.39095113  *
     7       C         22.11663332  *  20.64823929  *  22.41313738  *
     8       C         20.70619908  *  23.18479806  *  22.53301972  *
     9       C         22.11658674  *  23.14847404  *  22.51382768  *
    10       C         22.84865970  *  21.82750847  *  22.45123978  *
    11       C         24.26050218  *  21.90361887  *  22.50229751  *
    12       H         24.79077796  *  20.93018175  *  22.60742263  *
    13       C         22.89822519  *  24.31018291  *  22.54474086  *
    14       H         22.63071077  *  19.67852619  *  22.36721797  *
    15       H         18.00029665  *  18.50459024  *  22.39007331  *
    16       H         20.53509406  *  18.50365073  *  22.38522380  *
    17       H         18.00593693  *  22.95986707  *  22.39858993  *
    18       H         16.70987750  *  20.70543610  *  22.33688546  *
    19       H         20.13803634  *  24.12047141  *  22.48861106  *
    20       H         22.30134423  *  25.23501501  *  22.57636186  *
    21       C         26.47420937  *  23.00809561  *  22.54674179  *
    22       C         27.16906431  *  24.22631983  *  22.58940909  *
    23       C         26.48174580  *  25.49734294  *  22.60035535  *
    24       C         25.07097563  *  25.56760420  *  22.70432755  *
    25       H         26.95238645  *  22.00424863  *  22.50433313  *
    26       H         28.31113159  *  24.24152959  *  22.54408418  *
    27       H         27.09576962  *  26.41244019  *  22.51288433  *
    28       H         24.58933591  *  26.54367529  *  22.65028385  *
    29       C         25.03231894  *  23.09342179  *  22.50616780  *
    30       C         24.32356942  *  24.36210132  *  22.58183448  *
 


          CARTESIAN COORDINATES 

    NO.       ATOM           X           Y           Z

     1         C         18.5436     19.4843     22.3699
     2         C         19.9464     19.4406     22.3956
     3         C         20.7084     20.6701     22.4621
     4         C         19.9573     21.9923     22.4766
     5         C         18.5108     21.9187     22.4377
     6         C         17.8296     20.7299     22.3910
     7         C         22.1166     20.6482     22.4131
     8         C         20.7062     23.1848     22.5330
     9         C         22.1166     23.1485     22.5138
    10         C         22.8487     21.8275     22.4512
    11         C         24.2605     21.9036     22.5023
    12         H         24.7908     20.9302     22.6074
    13         C         22.8982     24.3102     22.5447
    14         H         22.6307     19.6785     22.3672
    15         H         18.0003     18.5046     22.3901
    16         H         20.5351     18.5037     22.3852
    17         H         18.0059     22.9599     22.3986
    18         H         16.7099     20.7054     22.3369
    19         H         20.1380     24.1205     22.4886
    20         H         22.3013     25.2350     22.5764
    21         C         26.4742     23.0081     22.5467
    22         C         27.1691     24.2263     22.5894
    23         C         26.4817     25.4973     22.6004
    24         C         25.0710     25.5676     22.7043
    25         H         26.9524     22.0042     22.5043
    26         H         28.3111     24.2415     22.5441
    27         H         27.0958     26.4124     22.5129
    28         H         24.5893     26.5437     22.6503
    29         C         25.0323     23.0934     22.5062
    30         C         24.3236     24.3621     22.5818

           Empirical Formula: C18 H12  =    30 atoms



      MOLECULAR POINT GROUP   :   Ci  


      RHF CALCULATION, NO. OF DOUBLY OCCUPIED LEVELS = 42

 WARNING: INDO only performs single-point calculations
  SCF CRITERION =    0.1000E-09

 Summary of symmetry occupancy in each shell:

 SHELL     
    1   42
    v   42
 TOTAL  84




    ROOT NO.    1           2           3           4           5           6

           -44.66029   -42.93185   -40.38725   -36.84501   -35.93533   -34.18758
  
  
  S  C   1   0.10231     0.21834    -0.27584    -0.24310    -0.06572    -0.10951
 PX  C   1   0.02688     0.04954    -0.04381    -0.00366    -0.04555    -0.07655
 PY  C   1   0.03763     0.07703    -0.08915    -0.06602     0.01924     0.03911
 PZ  C   1   0.00183     0.00380    -0.00449    -0.00324    -0.00073    -0.00125
  
  S  C   2   0.13240     0.24087    -0.22487    -0.09172    -0.18257    -0.26461
 PX  C   2  -0.00090    -0.02575     0.07482     0.11234    -0.04378    -0.03866
 PY  C   2   0.05294     0.08837    -0.06502    -0.00066    -0.01915    -0.01716
 PZ  C   2   0.00145     0.00232    -0.00142     0.00088    -0.00131    -0.00154
  
  S  C   3   0.24296     0.31135    -0.08127     0.18198    -0.17576    -0.19124
 PX  C   3   0.01179    -0.04611     0.14027     0.13848    -0.08204    -0.05337
 PY  C   3   0.04814     0.02698     0.06212     0.08831     0.10159     0.13119
 PZ  C   3  -0.00286    -0.00502     0.00372    -0.00053     0.00645     0.00767
  
  S  C   4   0.23809     0.30624    -0.08314     0.15785     0.19809     0.21212
 PX  C   4   0.04833     0.00135     0.12489     0.15363    -0.02485    -0.06686
 PY  C   4  -0.01898    -0.05815     0.08766     0.05816     0.11831     0.10586
 PZ  C   4  -0.00072    -0.00260     0.00440     0.00370     0.00257     0.00164
  
  S  C   5   0.13086     0.24140    -0.23357    -0.12494     0.16938     0.25136
 PX  C   5   0.04366     0.06120    -0.01781     0.05231     0.04208     0.03799
 PY  C   5  -0.02942    -0.07007     0.10020     0.09686     0.03095     0.02566
 PZ  C   5  -0.00029    -0.00119     0.00270     0.00394     0.00084     0.00023
  
  S  C   6   0.10243     0.21955    -0.27984    -0.25623     0.05122     0.09895
 PX  C   6   0.04634     0.09224    -0.10020    -0.06033     0.00548     0.00682
 PY  C   6   0.00399     0.00418     0.00481     0.02031     0.04860     0.08380
 PZ  C   6   0.00086     0.00165    -0.00151    -0.00021     0.00108     0.00173
  
  S  C   7   0.23173     0.16875     0.14348     0.24480    -0.31889    -0.17573
 PX  C   7  -0.02431    -0.07163     0.04381    -0.08027    -0.02225     0.07084
 PY  C   7   0.07822     0.02748     0.08675     0.05713    -0.00097     0.04562
 PZ  C   7   0.00482     0.00232     0.00442     0.00444    -0.00290    -0.00013
  
  S  C   8   0.22657     0.16301     0.14260     0.21012     0.33783     0.18802
 PX  C   8   0.05279    -0.01400     0.09459     0.00341     0.01582    -0.07410
 PY  C   8  -0.06166    -0.07479    -0.00908    -0.09948     0.00893    -0.04437
 PZ  C   8  -0.00499    -0.00487    -0.00204    -0.00613    -0.00571    -0.00518
  
  S  C   9   0.33058     0.04359     0.29544    -0.01190     0.23486    -0.00223
 PX  C   9   0.03389    -0.08470     0.02487    -0.18852    -0.08931    -0.06808
 PY  C   9  -0.04105    -0.05312    -0.03379    -0.10718     0.13139    -0.03904
 PZ  C   9  -0.00137    -0.00206    -0.00129    -0.00365     0.00406    -0.00159
  
  S  C  10   0.32949     0.04537     0.29253     0.01085    -0.23457     0.00185
 PX  C  10  -0.02017    -0.09044    -0.01965    -0.18619    -0.07168     0.05855
 PY  C  10   0.05048    -0.04496     0.03997    -0.11727     0.13227     0.03134
 PZ  C  10   0.00598    -0.00181     0.00505    -0.00536     0.00031     0.00222
  
  S  C  11   0.25693    -0.11653     0.14680    -0.22390    -0.29966     0.19755
 PX  C  11  -0.04863    -0.03451    -0.09740     0.00863     0.01461     0.08708
 PY  C  11   0.07309    -0.06712     0.00707    -0.10324     0.02440     0.03293
 PZ  C  11   0.00103    -0.00200    -0.00168    -0.00112    -0.00007     0.00259
  
  S  H  12   0.07915    -0.03411     0.04237    -0.05601    -0.15506     0.10265
  
  S  C  13   0.25687    -0.11178     0.15547    -0.23971     0.28344    -0.20010
 PX  C  13   0.03392    -0.07326    -0.04525    -0.07793    -0.04367    -0.07560
 PY  C  13  -0.08130     0.00720    -0.08602     0.06324     0.00097    -0.04612
 PZ  C  13  -0.00030    -0.00151    -0.00216    -0.00062     0.00222    -0.00465
  
  S  H  14   0.07143     0.05202     0.03964     0.07117    -0.16261    -0.08966
  
  S  H  15   0.02525     0.05714    -0.08007    -0.08449    -0.02809    -0.05021
  
  S  H  16   0.04141     0.07117    -0.05885    -0.01176    -0.09521    -0.13290
  
  S  H  17   0.03840     0.06676    -0.05748    -0.02383     0.08702     0.12194
  
  S  H  18   0.02503     0.05710    -0.08126    -0.09018     0.02064     0.04227
  
  S  H  19   0.06964     0.05022     0.03933     0.05530     0.16684     0.09250
  
  S  H  20   0.08029    -0.02998     0.05003    -0.06398     0.15450    -0.09462
  
  S  C  21   0.16638    -0.22515    -0.20272     0.11807    -0.15611     0.31269
 PX  C  21  -0.05607     0.05806     0.01677     0.05183     0.04168    -0.04430
 PY  C  21   0.04215    -0.07131    -0.09079     0.09545     0.02549    -0.01715
 PZ  C  21   0.00031    -0.00073    -0.00138     0.00222     0.00214    -0.00344
  
  S  C  22   0.13236    -0.20801    -0.24641     0.25579    -0.04081     0.13216
 PX  C  22  -0.06132     0.08969     0.09096    -0.06285     0.00503    -0.01335
 PY  C  22  -0.00391     0.00184    -0.00722     0.02667     0.04662    -0.10141
 PZ  C  22  -0.00118     0.00184     0.00208    -0.00189     0.00190    -0.00478
  
  S  C  23   0.13321    -0.20974    -0.24933     0.25999     0.06692    -0.11955
 PX  C  23  -0.03689     0.05092     0.04449    -0.01304    -0.04073     0.09063
 PY  C  23  -0.04856     0.07287     0.07824    -0.06456     0.01598    -0.04945
 PZ  C  23   0.00052    -0.00090    -0.00119     0.00123     0.00146    -0.00368
  
  S  C  24   0.16811    -0.22858    -0.20806     0.12300     0.16256    -0.30397
 PX  C  24   0.00501    -0.02808    -0.06635     0.10819    -0.03031     0.04120
 PY  C  24  -0.06952     0.08615     0.06094    -0.00448    -0.01784     0.02261
 PZ  C  24  -0.00994     0.01356     0.01219    -0.00655    -0.00828     0.01516
  
  S  H  25   0.04908    -0.06281    -0.05102     0.02297    -0.08061     0.15042
  
  S  H  26   0.03105    -0.05197    -0.06883     0.08696    -0.01595     0.05398
  
  S  H  27   0.03323    -0.05564    -0.07375     0.09308     0.02704    -0.05243
  
  S  H  28   0.04946    -0.06560    -0.05768     0.03235     0.07973    -0.14849
  
  S  C  29   0.29674    -0.28417    -0.07851    -0.15785    -0.16298     0.21693
 PX  C  29  -0.04835    -0.01468    -0.12263     0.16647    -0.02826     0.09925
 PY  C  29   0.03079    -0.06172    -0.08055     0.06165     0.11079    -0.13442
 PZ  C  29   0.00643    -0.00779    -0.00528     0.00009     0.00002     0.00027
  
  S  C  30   0.29414    -0.28084    -0.07599    -0.16133     0.14968    -0.23313
 PX  C  30   0.00350    -0.06357    -0.13530     0.14185    -0.06165     0.05500
 PY  C  30  -0.05973     0.02292    -0.06003     0.10816     0.08505    -0.13727
 PZ  C  30  -0.00255     0.00014    -0.00450     0.00670     0.00327    -0.00619




    ROOT NO.    7           8           9          10          11          12

           -31.86684   -31.32522   -28.64497   -28.22897   -27.00322   -26.01120
  
  
  S  C   1   0.15045     0.26455     0.21611     0.24950    -0.04735     0.19442
 PX  C   1   0.11915    -0.07950     0.11248    -0.16017     0.02002     0.07466
 PY  C   1  -0.07539     0.02583    -0.10730    -0.00454    -0.04706    -0.12927
 PZ  C   1   0.00195     0.00112     0.00253    -0.00089    -0.00150     0.00159
  
  S  C   2   0.31090    -0.03826     0.18715    -0.13487     0.10055     0.06278
 PX  C   2  -0.00785    -0.13758    -0.14621    -0.10887     0.08710    -0.17622
 PY  C   2  -0.00368    -0.07274    -0.07137    -0.08747    -0.06839    -0.11904
 PZ  C   2   0.00112    -0.00443    -0.00235    -0.00560    -0.00073    -0.00523
  
  S  C   3   0.11812    -0.23413    -0.11344    -0.11670    -0.08669    -0.19372
 PX  C   3  -0.05183     0.02757    -0.13914     0.14843     0.07341    -0.05128
 PY  C   3  -0.11164    -0.00627     0.01254     0.10071    -0.19450     0.05746
 PZ  C   3  -0.00478     0.00350     0.00466     0.00432    -0.00521     0.00602
  
  S  C   4  -0.08509    -0.25771     0.11386    -0.11625    -0.10623     0.14958
 PX  C   4   0.11126     0.01958     0.05695     0.17494    -0.12974    -0.06900
 PY  C   4  -0.00936     0.01708     0.11824     0.08459     0.14474     0.13993
 PZ  C   4   0.00221     0.00014     0.00632     0.00501    -0.00045     0.00411
  
  S  C   5  -0.29185    -0.06411    -0.18049    -0.16003     0.12751    -0.01138
 PX  C   5   0.02668    -0.14050     0.13185    -0.12798    -0.05067     0.16297
 PY  C   5   0.02038    -0.08999     0.08616    -0.04994     0.08420     0.13595
 PZ  C   5   0.00292    -0.00567     0.00732    -0.00400    -0.00158     0.00822
  
  S  C   6  -0.19003     0.25657    -0.21195     0.23245     0.00559    -0.19078
 PX  C   6   0.00202    -0.01919     0.03214    -0.08507    -0.04069     0.04448
 PY  C   6  -0.12243    -0.08981    -0.14488    -0.15033     0.07580    -0.09940
 PZ  C   6  -0.00185    -0.00372    -0.00096    -0.00695     0.00015     0.00060
  
  S  C   7  -0.13907    -0.00179    -0.23162     0.11005     0.17119     0.01946
 PX  C   7  -0.13763     0.13775     0.06785     0.01624     0.10939     0.20837
 PY  C   7  -0.08606     0.08466     0.02741     0.09452    -0.16619     0.07949
 PZ  C   7  -0.00293     0.00154    -0.00033     0.00362    -0.00525     0.00022
  
  S  C   8   0.14047    -0.00286     0.22372     0.13613     0.15532     0.03784
 PX  C   8   0.11578     0.16373    -0.06134     0.08632    -0.05137    -0.20488
 PY  C   8   0.06438     0.08189    -0.03661    -0.03747     0.19504    -0.06702
 PZ  C   8   0.00019     0.00267    -0.00475    -0.00245    -0.00008    -0.00372
  
  S  C   9   0.19168     0.25362    -0.00851     0.00837    -0.06612    -0.17479
 PX  C   9  -0.06831     0.01896    -0.09818    -0.18836    -0.10951     0.04935
 PY  C   9   0.13872    -0.00321    -0.06574    -0.09394     0.23795    -0.07560
 PZ  C   9   0.00455    -0.00099    -0.00184    -0.00203     0.00849    -0.00233
  
  S  C  10  -0.23822     0.22754     0.02125     0.00014    -0.08300     0.16970
 PX  C  10  -0.06492    -0.00970     0.12682    -0.17369     0.12845     0.07006
 PY  C  10   0.11672     0.02968     0.05990    -0.10007    -0.21199    -0.12247
 PZ  C  10   0.00016     0.00316     0.00512    -0.00499    -0.00584    -0.00209
  
  S  C  11  -0.14552    -0.00474     0.25719    -0.11556     0.16646    -0.03183
 PX  C  11   0.13131    -0.14885     0.03347     0.09241     0.08281    -0.20234
 PY  C  11   0.07594    -0.08229     0.01219    -0.03564    -0.18121    -0.12383
 PZ  C  11   0.00306    -0.00457     0.00231     0.00248     0.00298    -0.00585
  
  S  H  12  -0.06984    -0.00252     0.12265    -0.01091     0.21288    -0.00747
  
  S  C  13   0.15902     0.02914    -0.23615    -0.12881     0.16895     0.03614
 PX  C  13  -0.11953    -0.16492    -0.04000     0.00643    -0.14432     0.18377
 PY  C  13  -0.05133    -0.09045    -0.03036     0.08954     0.14835     0.10815
 PZ  C  13  -0.00185    -0.00543    -0.00372     0.00392     0.00595     0.00719
  
  S  H  14  -0.05838    -0.00730    -0.10411     0.00908     0.21426     0.02751
  
  S  H  15   0.07642     0.13605     0.12832     0.16942    -0.00500     0.14377
  
  S  H  16   0.14829    -0.02488     0.07813    -0.05723     0.12077     0.03670
  
  S  H  17  -0.12995    -0.04037    -0.06934    -0.06855     0.12721     0.02817
  
  S  H  18  -0.09072     0.13479    -0.12030     0.16483     0.02547    -0.12096
  
  S  H  19   0.06350    -0.01011     0.10578     0.02133     0.20394     0.05080
  
  S  H  20   0.08934     0.02043    -0.11194    -0.01970     0.21796     0.01322
  
  S  C  21   0.27066    -0.00953    -0.17871     0.13457     0.12213     0.04817
 PX  C  21   0.00717     0.13699    -0.11458    -0.12217     0.01156     0.19248
 PY  C  21   0.01551     0.07680    -0.08275    -0.03925    -0.11330     0.12024
 PZ  C  21  -0.00211     0.00296    -0.00167    -0.00248    -0.00420     0.00567
  
  S  C  22   0.14185     0.28646    -0.18571    -0.24471    -0.04676     0.21065
 PX  C  22  -0.00457     0.02032    -0.01518    -0.08819     0.03097     0.04942
 PY  C  22  -0.11948     0.07627     0.14205    -0.14375    -0.05399    -0.12421
 PZ  C  22  -0.00559    -0.00196     0.00662     0.00111    -0.00095    -0.00575
  
  S  C  23  -0.15973     0.26105     0.20857    -0.24334    -0.00461    -0.20750
 PX  C  23   0.09441     0.09536    -0.09095    -0.17474    -0.04429     0.07074
 PY  C  23  -0.06404    -0.03366     0.10325     0.00336     0.07939    -0.12687
 PZ  C  23  -0.00493    -0.00128     0.00644     0.00493     0.00194    -0.00570
  
  S  C  24  -0.26430    -0.06197     0.17242     0.14611     0.13685    -0.05495
 PX  C  24  -0.02751     0.13383     0.13310    -0.09617    -0.04933    -0.19245
 PY  C  24  -0.01160     0.07596     0.07870    -0.08069     0.09677    -0.11617
 PZ  C  24   0.01224     0.00464    -0.00597    -0.00807    -0.00246     0.00032
  
  S  H  25   0.12280    -0.01026    -0.06901     0.05678     0.13221     0.00783
  
  S  H  26   0.06371     0.14678    -0.09717    -0.16947    -0.00549     0.13234
  
  S  H  27  -0.07790     0.14069     0.12334    -0.17531     0.02152    -0.14463
  
  S  H  28  -0.12734    -0.02559     0.09043     0.05647     0.13896    -0.03922
  
  S  C  29   0.09765    -0.24062     0.08274     0.11453    -0.08576    -0.17902
 PX  C  29   0.10602     0.01678    -0.06705     0.15689     0.12550    -0.02995
 PY  C  29  -0.01657    -0.02714    -0.12620     0.06569    -0.17347     0.14116
 PZ  C  29   0.00111    -0.00687    -0.00137     0.00736    -0.00463     0.00052
  
  S  C  30  -0.07546    -0.25581    -0.11560     0.10979    -0.10598     0.18686
 PX  C  30  -0.04997    -0.02993     0.11751     0.15157    -0.06848    -0.07793
 PY  C  30  -0.09197     0.01054    -0.00470     0.09917     0.18584     0.09271
 PZ  C  30  -0.00553    -0.00165     0.00130     0.01031     0.01016     0.00565




    ROOT NO.   13          14          15          16          17          18

           -25.15204   -23.96274   -22.72794   -21.57662   -20.46502   -19.26961
  
  
  S  C   1   0.00095     0.12286    -0.01057    -0.17763    -0.05943     0.00082
 PX  C   1  -0.02472    -0.22490     0.00859    -0.00220     0.23425     0.18251
 PY  C   1  -0.11709     0.00608    -0.18892     0.14625    -0.12742     0.19771
 PZ  C   1  -0.00343    -0.00206    -0.00382    -0.00074     0.00004     0.00254
  
  S  C   2   0.11971    -0.18187     0.13071     0.11511     0.14031     0.01903
 PX  C   2   0.10737     0.02579     0.07543     0.18853    -0.12279    -0.15848
 PY  C   2  -0.15807     0.01198    -0.20105     0.09655    -0.15833     0.07889
 PZ  C   2  -0.00349    -0.00055    -0.00435     0.00804    -0.00597    -0.00540
  
  S  C   3  -0.10041     0.10585    -0.03216     0.09892    -0.06607    -0.15494
 PX  C   3   0.17625     0.13435     0.14742    -0.11769    -0.01303    -0.01701
 PY  C   3  -0.18787     0.10404    -0.03985    -0.13917     0.12134    -0.08411
 PZ  C   3  -0.00554     0.00187    -0.00044    -0.00114     0.00649    -0.00941
  
  S  C   4  -0.11840     0.10745    -0.02873    -0.08849    -0.07576    -0.15909
 PX  C   4  -0.05758     0.16571     0.03888     0.17340     0.10972    -0.06464
 PY  C   4   0.23857     0.06708     0.14705     0.03084    -0.07249     0.03635
 PZ  C   4   0.00229     0.00730     0.00266     0.00678    -0.00043    -0.00613
  
  S  C   5   0.12409    -0.18909     0.13052    -0.13270     0.13132     0.01107
 PX  C   5  -0.12083     0.01846    -0.13963    -0.15534    -0.20945    -0.02345
 PY  C   5   0.14301     0.01434     0.15784    -0.12441    -0.04291    -0.18244
 PZ  C   5  -0.00340     0.00275    -0.00404    -0.00577    -0.00913    -0.00490
  
  S  C   6   0.05280     0.12208     0.00865     0.17689    -0.03618    -0.00122
 PX  C   6  -0.12807    -0.11438    -0.16197    -0.10764     0.00384     0.26439
 PY  C   6   0.06798    -0.20127     0.11388     0.04518     0.27921     0.05786
 PZ  C   6  -0.00309    -0.00835    -0.00274    -0.00411     0.00660     0.00802
  
  S  C   7   0.13571     0.08767    -0.06762    -0.20691    -0.07053     0.15164
 PX  C   7  -0.01252    -0.13564    -0.15894    -0.06420     0.02376     0.16757
 PY  C   7  -0.13889    -0.06628     0.03550    -0.04936     0.21658    -0.01536
 PZ  C   7  -0.00460     0.00146     0.00344     0.00322     0.00938    -0.01331
  
  S  C   8   0.15596     0.08424    -0.05750     0.21261    -0.04577     0.16798
 PX  C   8  -0.09165    -0.14403    -0.05688     0.04703     0.20634     0.06643
 PY  C   8   0.08354    -0.08700    -0.14514     0.04009    -0.09563     0.15314
 PZ  C   8  -0.00415    -0.00249    -0.00396     0.00011     0.00292    -0.00434
  
  S  C   9  -0.01620    -0.22658     0.04837    -0.00073     0.00657     0.00772
 PX  C   9  -0.01750    -0.05124     0.11984    -0.16365    -0.19547    -0.15079
 PY  C   9   0.02492     0.04710    -0.21236    -0.08441    -0.10195    -0.06798
 PZ  C   9  -0.00116     0.00399    -0.00931     0.00270     0.00260    -0.00672
  
  S  C  10  -0.04823    -0.20831     0.03863     0.00420     0.00513     0.00626
 PX  C  10   0.00938     0.01622    -0.11640     0.20231    -0.16402    -0.14177
 PY  C  10  -0.00486    -0.08088     0.21908     0.10444    -0.09584    -0.09277
 PZ  C  10  -0.00309    -0.00272     0.00513     0.01326     0.00077    -0.01813
  
  S  C  11  -0.08917     0.10852    -0.07416     0.20998     0.06189    -0.15350
 PX  C  11  -0.04124     0.17707     0.02548    -0.09205     0.19215     0.05669
 PY  C  11   0.09770     0.06626     0.16475    -0.06813    -0.09577     0.14865
 PZ  C  11  -0.00252     0.00623    -0.00297     0.00393     0.01326    -0.01152
  
  S  H  12  -0.11389     0.07427    -0.12240     0.10895     0.14882    -0.14749
  
  S  C  13  -0.11538     0.11622    -0.06926    -0.19949     0.03503    -0.15112
 PX  C  13   0.01720     0.17323     0.16545     0.07404     0.03367     0.15259
 PY  C  13  -0.10548     0.12911    -0.06757     0.01515     0.21418    -0.03350
 PZ  C  13  -0.00610     0.00729    -0.00182     0.00537     0.01332    -0.00249
  
  S  H  14   0.14609     0.04082    -0.10126    -0.08909    -0.15561     0.14192
  
  S  H  15   0.07107     0.12912     0.10137    -0.17940    -0.03345    -0.19697
  
  S  H  16   0.18594    -0.08990     0.20334     0.06633     0.11636    -0.09226
  
  S  H  17   0.17999    -0.08841     0.19568    -0.08893     0.09757    -0.09665
  
  S  H  18   0.10436     0.13870     0.10994     0.16479    -0.02729    -0.20192
  
  S  H  19   0.15742     0.04188    -0.08895     0.10757    -0.14983     0.15480
  
  S  H  20  -0.11793     0.07186    -0.13354    -0.11081     0.12587    -0.15009
  
  S  C  21  -0.20326    -0.13067     0.14673    -0.09693    -0.11921     0.01051
 PX  C  21  -0.10961     0.01175     0.14623     0.17381    -0.17385     0.02730
 PY  C  21   0.14170    -0.08630    -0.14889     0.09912    -0.04413    -0.15026
 PZ  C  21   0.00519    -0.00349    -0.00638     0.00947    -0.00298    -0.01200
  
  S  C  22   0.00348     0.12543     0.00308     0.16975     0.04147    -0.01203
 PX  C  22  -0.08411     0.16949     0.14929     0.10428     0.03348     0.22139
 PY  C  22   0.13728     0.17418    -0.12895    -0.07080     0.23582     0.00026
 PZ  C  22   0.00403    -0.00255    -0.00592    -0.00084     0.00096    -0.01118
  
  S  C  23   0.05282     0.12282    -0.01813    -0.16630     0.02936    -0.00905
 PX  C  23   0.05083     0.24557    -0.01807    -0.01699     0.21266     0.12793
 PY  C  23  -0.11919     0.04752     0.18534    -0.11744    -0.11184     0.19006
 PZ  C  23  -0.00176    -0.01299    -0.00068     0.00308    -0.01341    -0.01731
  
  S  C  24  -0.18677    -0.13818     0.13480     0.11093    -0.09846    -0.00605
 PX  C  24   0.10230    -0.07455    -0.06072    -0.16020    -0.15154    -0.11012
 PY  C  24  -0.15526     0.04700     0.20518    -0.07507    -0.14816     0.09127
 PZ  C  24   0.00220     0.00570     0.00001    -0.00073     0.00087    -0.00305
  
  S  H  25  -0.21597    -0.01197     0.20149    -0.05482    -0.08163     0.10616
  
  S  H  26  -0.04818     0.17271     0.09881     0.15690     0.04855     0.16188
  
  S  H  27  -0.01598     0.17671     0.08570    -0.16034     0.03518     0.16931
  
  S  H  28  -0.21384    -0.02241     0.20742     0.05622    -0.09640     0.08941
  
  S  C  29   0.14891     0.06822    -0.03651    -0.10951     0.05147     0.13024
 PX  C  29  -0.10367    -0.15280    -0.06291    -0.15127     0.08325    -0.10490
 PY  C  29   0.19450    -0.13269    -0.12263     0.00070    -0.08498     0.04415
 PZ  C  29   0.00786    -0.00423    -0.00942     0.00278     0.00573    -0.00664
  
  S  C  30   0.09415     0.09204    -0.02107     0.08888     0.08155     0.13241
 PX  C  30   0.13771    -0.20811    -0.14173     0.09072    -0.01688    -0.01423
 PY  C  30  -0.21572    -0.05019     0.01987     0.12253     0.14074    -0.10892
 PZ  C  30  -0.01094    -0.00760    -0.00359     0.01681     0.01483    -0.01253




    ROOT NO.   19          20          21          22          23          24

           -18.32738   -17.19968   -16.89046   -16.69131   -15.85034   -15.29822
  
  
  S  C   1   0.14438     0.02852     0.02241     0.10435     0.05928     0.06390
 PX  C   1  -0.07699    -0.16562     0.07496     0.01059     0.14537     0.07179
 PY  C   1  -0.13253     0.18664     0.01357    -0.11093     0.13941    -0.04033
 PZ  C   1   0.00127    -0.00112    -0.00321     0.00184    -0.00178     0.00363
  
  S  C   2  -0.15669    -0.00043     0.02009    -0.07702    -0.02022    -0.02132
 PX  C   2  -0.08559     0.16005    -0.07596    -0.09881    -0.17205    -0.10079
 PY  C   2   0.02068     0.13573     0.12552     0.21419    -0.04572     0.27117
 PZ  C   2  -0.00296     0.00476    -0.00219     0.00629    -0.01342     0.01191
  
  S  C   3   0.04497    -0.02394     0.12142     0.20210    -0.07468     0.05585
 PX  C   3   0.15931     0.04071     0.04520     0.07408     0.23108    -0.13225
 PY  C   3   0.04954    -0.26392    -0.04173    -0.03739    -0.01462    -0.09481
 PZ  C   3  -0.00352    -0.01398    -0.01398    -0.00260    -0.00417     0.00796
  
  S  C   4  -0.04777    -0.07404    -0.13498    -0.18120    -0.06970    -0.04522
 PX  C   4  -0.13819    -0.21543     0.03841     0.03138     0.11105     0.13026
 PY  C   4  -0.10133     0.13926    -0.02410    -0.10336     0.20684     0.03647
 PZ  C   4  -0.01069    -0.00969    -0.01579    -0.01017     0.00890     0.01306
  
  S  C   5   0.15176     0.01194    -0.01662     0.07331     0.00868     0.01668
 PX  C   5   0.04102     0.16940    -0.10732    -0.16632    -0.14461    -0.16516
 PY  C   5   0.09344     0.11876     0.07662     0.15924    -0.15777     0.19885
 PZ  C   5  -0.00018     0.00295    -0.01209    -0.01097    -0.00590    -0.00483
  
  S  C   6  -0.13889    -0.00336    -0.01586    -0.10521     0.03640    -0.06914
 PX  C   6   0.14120     0.08423    -0.01946     0.03593     0.25953    -0.06467
 PY  C   6  -0.00913    -0.25050     0.00204     0.02625     0.08119    -0.02044
 PZ  C   6   0.00631    -0.00624    -0.00697    -0.00003     0.00880    -0.00376
  
  S  C   7   0.09426    -0.03822    -0.01774    -0.03610     0.06794    -0.02554
 PX  C   7  -0.14497    -0.06801    -0.11658    -0.19566    -0.17024     0.08596
 PY  C   7  -0.11310    -0.00872     0.27866     0.12467    -0.10220    -0.20087
 PZ  C   7  -0.00021    -0.00242     0.00080     0.01898     0.00582     0.00278
  
  S  C   8  -0.08218    -0.02399     0.03121     0.04106     0.07203     0.03390
 PX  C   8   0.18082    -0.06848    -0.19167     0.00501    -0.13535     0.12068
 PY  C   8   0.06551     0.05061     0.22599     0.22534    -0.12170    -0.14243
 PZ  C   8   0.00337    -0.00778    -0.01719    -0.00107     0.00004     0.01240
  
  S  C   9   0.13633     0.11684    -0.19193    -0.03297    -0.04315     0.08633
 PX  C   9  -0.05366     0.12429     0.07371    -0.03400     0.07410    -0.09744
 PY  C   9   0.07501    -0.21708    -0.05947     0.01386    -0.10360    -0.01791
 PZ  C   9   0.00601    -0.01319    -0.02611     0.00553     0.00514     0.01823
  
  S  C  10  -0.14333     0.12887     0.16602     0.00582    -0.09469    -0.06845
 PX  C  10  -0.03885    -0.12261    -0.01051     0.05331    -0.04922     0.08847
 PY  C  10   0.06483     0.21441    -0.07755    -0.01183     0.13855     0.07056
 PZ  C  10   0.00500     0.00397    -0.02563     0.01590     0.01872     0.02183
  
  S  C  11   0.10761    -0.04564    -0.00776     0.05139     0.09485    -0.00167
 PX  C  11   0.17237     0.04275    -0.08952    -0.03618     0.13163    -0.05306
 PY  C  11   0.08291     0.00564     0.18977    -0.11733     0.03806    -0.15709
 PZ  C  11   0.01179     0.00113    -0.03429     0.01801     0.02439     0.01264
  
  S  H  12   0.05814    -0.01364    -0.20423     0.10353     0.08146     0.09953
  
  S  C  13  -0.11068    -0.05397     0.03778    -0.04337     0.09073    -0.01703
 PX  C  13  -0.15598     0.04473    -0.07484     0.06889     0.18117     0.16937
 PY  C  13  -0.10655     0.02251     0.20673    -0.04078     0.01676    -0.07765
 PZ  C  13   0.00065     0.00747    -0.01298     0.00595     0.01086     0.00592
  
  S  H  14   0.07001    -0.04252    -0.27385    -0.19762     0.04929     0.17236
  
  S  H  15   0.19495    -0.05283    -0.03176     0.12740    -0.13803     0.03002
  
  S  H  16  -0.12593    -0.02526    -0.12558    -0.24792    -0.04790    -0.25730
  
  S  H  17   0.12204     0.03819     0.10500     0.22983    -0.05513     0.22927
  
  S  H  18  -0.18231    -0.06602     0.00922    -0.08360    -0.21163     0.02296
  
  S  H  19  -0.06741     0.05349     0.27429     0.18966     0.00766    -0.14333
  
  S  H  20  -0.05895    -0.03563     0.21963    -0.07889    -0.02310    -0.14992
  
  S  C  21  -0.17733     0.01472    -0.02234     0.05463     0.00147     0.06251
 PX  C  21   0.02468    -0.20587    -0.13162     0.19798     0.11629    -0.10911
 PY  C  21   0.10962    -0.14286     0.21681    -0.20288     0.12402     0.21672
 PZ  C  21   0.01095    -0.01000    -0.00870     0.00633     0.02910    -0.00571
  
  S  C  22   0.18120    -0.01002     0.06844    -0.09813     0.05232    -0.00048
 PX  C  22   0.18486    -0.04168    -0.04061    -0.00557    -0.24919    -0.17669
 PY  C  22  -0.00734     0.27151    -0.05716    -0.00144    -0.03137    -0.08046
 PZ  C  22   0.00399     0.00208    -0.01073     0.00825     0.03065    -0.02190
  
  S  C  23  -0.17456     0.01153    -0.06001     0.09514     0.06442    -0.01201
 PX  C  23  -0.06490     0.20284     0.01817    -0.04699    -0.16644     0.20518
 PY  C  23  -0.14244    -0.17300    -0.01740     0.06949    -0.18728     0.08543
 PZ  C  23   0.01566    -0.01118    -0.00721     0.00413     0.04324    -0.04154
  
  S  C  24   0.16674     0.00986     0.01202    -0.04963     0.00028    -0.05928
 PX  C  24  -0.11647    -0.21905    -0.04907     0.11057     0.18542    -0.17502
 PY  C  24   0.04791    -0.15153     0.22870    -0.24023     0.02091     0.18460
 PZ  C  24   0.00954     0.00335    -0.00247    -0.00432     0.01951    -0.00979
  
  S  H  25  -0.15907     0.04134    -0.23152     0.25950    -0.04466    -0.17879
  
  S  H  26   0.23633    -0.03647    -0.00072    -0.05385    -0.19574    -0.15761
  
  S  H  27  -0.21178    -0.01909    -0.03380     0.07521    -0.18788     0.15922
  
  S  H  28   0.15790    -0.02702     0.20199    -0.25014    -0.05707     0.18229
  
  S  C  29   0.06411    -0.04512     0.14441    -0.14232    -0.12512    -0.01389
 PX  C  29  -0.14553     0.21682     0.05579    -0.10343    -0.06617     0.16104
 PY  C  29  -0.11147    -0.15455    -0.07246     0.08783    -0.18900     0.07681
 PZ  C  29   0.00683     0.00131    -0.02654     0.01622     0.01363    -0.00152
  
  S  C  30  -0.05436    -0.00144    -0.15230     0.14302    -0.07157     0.02477
 PX  C  30   0.17174    -0.01225    -0.02938     0.02741    -0.24604    -0.14988
 PY  C  30   0.05243     0.29040    -0.07199     0.03432     0.04391    -0.03476
 PZ  C  30   0.01996     0.03291    -0.02811     0.01399     0.01136    -0.01502




    ROOT NO.   25          26          27          28          29          30

           -14.91776   -14.80151   -14.66209   -14.48636   -13.70888   -13.45776
  
  
  S  C   1  -0.00883    -0.01139    -0.02623     0.03738    -0.04628     0.00653
 PX  C   1   0.29784    -0.00272     0.06816    -0.02886    -0.12531     0.02592
 PY  C   1   0.00259    -0.29531    -0.00197    -0.00603    -0.09869     0.00857
 PZ  C   1  -0.03080     0.01440     0.09945     0.07087    -0.00107    -0.24979
  
  S  C   2   0.05618    -0.10230     0.02507    -0.02716     0.01715    -0.00610
 PX  C   2  -0.26325    -0.03878    -0.05266     0.00501     0.14934    -0.02311
 PY  C   2   0.17174    -0.08985    -0.01792     0.08722     0.06413    -0.02608
 PZ  C   2  -0.03616     0.00758     0.12948     0.08897     0.00526    -0.26289
  
  S  C   3  -0.00695     0.06836     0.01536    -0.00718    -0.01039    -0.01191
 PX  C   3  -0.14618     0.00505     0.00218    -0.04214    -0.22677     0.02971
 PY  C   3   0.02958     0.17697     0.02251    -0.06760    -0.02843     0.04707
 PZ  C   3  -0.05217     0.01181     0.22093     0.13399    -0.01401    -0.30081
  
  S  C   4   0.05104     0.04023     0.00480    -0.00311    -0.02827     0.01593
 PX  C   4   0.14281     0.05954    -0.02382     0.07364    -0.15624     0.00512
 PY  C   4   0.02845    -0.17201    -0.03003     0.06944    -0.20105    -0.00819
 PZ  C   4  -0.04251     0.00997     0.21559     0.14539    -0.02459    -0.30355
  
  S  C   5  -0.10217    -0.00589    -0.03566     0.03325     0.03232    -0.00844
 PX  C   5  -0.08449    -0.05156     0.02559    -0.09168     0.13609     0.02197
 PY  C   5   0.14877    -0.28712    -0.01114     0.03880     0.07319    -0.00300
 PZ  C   5  -0.03741     0.01356     0.13419     0.08686    -0.00446    -0.27080
  
  S  C   6   0.00198    -0.00496     0.01918    -0.02571    -0.04612     0.00045
 PX  C   6  -0.27465     0.01340    -0.08346     0.06458    -0.12215    -0.00104
 PY  C   6   0.00972     0.30926     0.00967    -0.00231    -0.04205     0.00760
 PZ  C   6  -0.04364     0.02800     0.09948     0.07459    -0.00885    -0.25758
  
  S  C   7   0.07163     0.00940     0.02099    -0.01447     0.00515     0.00262
 PX  C   7   0.17254    -0.04171     0.02109     0.03470     0.22687    -0.03979
 PY  C   7  -0.08041    -0.17636     0.09444    -0.18969     0.07759    -0.03276
 PZ  C   7  -0.06475    -0.01057     0.23133     0.11314    -0.02418    -0.15812
  
  S  C   8  -0.03367     0.05777    -0.00242     0.01950     0.03485    -0.01382
 PX  C   8  -0.14433    -0.08300    -0.11743     0.11411     0.24087     0.00391
 PY  C   8  -0.06993     0.18431     0.08702    -0.17260     0.17499     0.00911
 PZ  C   8  -0.04527     0.00302     0.21591     0.13563    -0.00392    -0.15662
  
  S  C   9   0.00619    -0.02038     0.01506    -0.05745     0.00329    -0.00203
 PX  C   9   0.16446     0.07903     0.14061    -0.16001    -0.24818     0.00168
 PY  C   9   0.08004     0.03368     0.07180    -0.13367    -0.09767    -0.00642
 PZ  C   9  -0.05468    -0.00678     0.28987     0.15908     0.00208    -0.01293
  
  S  C  10  -0.01369     0.01387    -0.01613     0.05535     0.01307     0.00068
 PX  C  10  -0.05447     0.19506    -0.11192     0.19046    -0.14222     0.04291
 PY  C  10  -0.01292     0.10788    -0.07482     0.09055    -0.12069     0.03602
 PZ  C  10  -0.07084    -0.01157     0.29416     0.14556    -0.02315    -0.01434
  
  S  C  11  -0.06623    -0.01045    -0.04908     0.02005    -0.00720     0.01121
 PX  C  11   0.05138    -0.19519     0.08291    -0.21824     0.14007    -0.04615
 PY  C  11   0.13457     0.10167    -0.09253     0.27477     0.18387     0.01760
 PZ  C  11  -0.04999    -0.03936     0.25624     0.07287     0.00277     0.13777
  
  S  H  12  -0.10587    -0.16411     0.10756    -0.29583    -0.08690    -0.01933
  
  S  C  13   0.03895    -0.06031     0.01307    -0.02168    -0.02482    -0.01935
 PX  C  13  -0.08285     0.03551     0.02581    -0.13455     0.26077    -0.04304
 PY  C  13  -0.11230    -0.10259    -0.18855     0.32490     0.08648     0.01896
 PZ  C  13  -0.03688    -0.00689     0.23312     0.13299     0.02848     0.14088
  
  S  H  14   0.16107     0.11858    -0.06341     0.14312     0.03881     0.01730
  
  S  H  15  -0.14254     0.23385    -0.04164     0.03763     0.12032    -0.01949
  
  S  H  16  -0.22188     0.00178    -0.00283    -0.07364     0.03323     0.01017
  
  S  H  17   0.10626    -0.21357    -0.03705     0.07732     0.02053    -0.00832
  
  S  H  18   0.25291    -0.01962     0.08266    -0.07716     0.09848     0.01276
  
  S  H  19  -0.00348     0.19333     0.10614    -0.16888     0.04547     0.00461
  
  S  H  20  -0.02887    -0.11039    -0.14011     0.30464    -0.06509     0.03171
  
  S  C  21  -0.04083     0.07397    -0.00984     0.02424    -0.00540     0.02290
 PX  C  21  -0.03808    -0.07365    -0.07650     0.06429     0.15470     0.00036
 PY  C  21  -0.21083    -0.08773    -0.00364    -0.07757     0.01364     0.03087
 PZ  C  21  -0.01755    -0.02563     0.15811     0.06426     0.05359     0.24878
  
  S  C  22   0.02697    -0.01695     0.02120    -0.03235     0.05590    -0.00923
 PX  C  22   0.10610    -0.14210     0.03315     0.01610    -0.20533    -0.01523
 PY  C  22   0.20592     0.17632     0.03261     0.00452     0.04505    -0.05286
 PZ  C  22   0.01148    -0.01280     0.12150     0.05503     0.06723     0.22158
  
  S  C  23  -0.01100     0.00650    -0.02681     0.02927     0.06556    -0.00603
 PX  C  23  -0.11102     0.19839     0.01937    -0.01157    -0.07385     0.08330
 PY  C  23  -0.21639    -0.13843    -0.02555     0.02521    -0.19217     0.07975
 PZ  C  23   0.03165    -0.02377     0.12315     0.05604     0.07840     0.21063
  
  S  C  24   0.08649     0.01973     0.03740    -0.00622    -0.01452     0.01226
 PX  C  24   0.06360    -0.20884    -0.02009     0.02453     0.11608    -0.05982
 PY  C  24  -0.06161     0.00525     0.06036    -0.11083     0.10870    -0.03796
 PZ  C  24   0.00425    -0.00469     0.16420     0.07233     0.05832     0.24730
  
  S  H  25   0.13215     0.07634    -0.03390     0.08572     0.04430    -0.02549
  
  S  H  26   0.11024    -0.13795     0.03789    -0.00463    -0.17805    -0.02766
  
  S  H  27  -0.22588    -0.00159    -0.03325     0.02532    -0.16914     0.08877
  
  S  H  28  -0.03265     0.09634     0.06602    -0.09760     0.02635    -0.00854
  
  S  C  29   0.01026    -0.04334    -0.00938     0.04864    -0.01667    -0.00743
 PX  C  29  -0.01581     0.10509     0.06183    -0.08770    -0.17097     0.00188
 PY  C  29  -0.11691    -0.07092     0.02324    -0.07688    -0.17890    -0.00219
 PZ  C  29  -0.03343    -0.02985     0.26797     0.10257     0.02988     0.30281
  
  S  C  30  -0.06094    -0.02094     0.00235    -0.05283     0.00351     0.00216
 PX  C  30   0.04040    -0.02336    -0.04377     0.11483    -0.25964     0.03929
 PY  C  30   0.07369     0.13911    -0.04982     0.03674    -0.05064    -0.00054
 PZ  C  30  -0.01107     0.00128     0.25873     0.12991     0.03247     0.30857




    ROOT NO.   31          32          33          34          35          36

           -13.07499   -12.85705   -12.14004   -11.83973   -11.57658   -11.49018
  
  
  S  C   1   0.03041     0.00602     0.01636    -0.00731    -0.00516     0.01100
 PX  C   1  -0.10031    -0.22139    -0.10523    -0.02081     0.02596     0.15719
 PY  C   1   0.18997    -0.15163     0.19015    -0.00905    -0.07851     0.06489
 PZ  C   1  -0.02684    -0.00539     0.01507     0.31476    -0.05658     0.08922
  
  S  C   2   0.00861    -0.02245    -0.02098     0.01226     0.03168    -0.02382
 PX  C   2   0.07814     0.22458     0.06310     0.02192     0.00284    -0.18079
 PY  C   2  -0.11708     0.16007    -0.20409     0.03212     0.12012    -0.12468
 PZ  C   2  -0.02458    -0.00359     0.01124     0.21602    -0.05390     0.05286
  
  S  C   3   0.01728     0.03582     0.02599    -0.00322    -0.00554     0.01239
 PX  C   3   0.04617    -0.18591    -0.12171    -0.02124     0.11436     0.22552
 PY  C   3   0.06694    -0.14476     0.27810    -0.05282    -0.21566     0.09960
 PZ  C   3  -0.01218    -0.04392     0.02694     0.03103    -0.05157     0.02205
  
  S  C   4  -0.01068    -0.03184    -0.00754     0.00666     0.00847    -0.01364
 PX  C   4   0.13849     0.15937     0.21024     0.03864    -0.11246    -0.18678
 PY  C   4   0.02405     0.08618    -0.23943     0.06955     0.22102    -0.09955
 PZ  C   4  -0.01300    -0.03899     0.02409     0.05924     0.02350     0.01094
  
  S  C   5   0.01677     0.02237    -0.02118    -0.00143     0.02815     0.02223
 PX  C   5  -0.13727    -0.18671    -0.18964    -0.04637     0.08987     0.17630
 PY  C   5   0.11595    -0.12899     0.17652    -0.01827    -0.08903     0.06546
 PZ  C   5  -0.03217    -0.03267     0.00802     0.24838    -0.00783     0.08476
  
  S  C   6   0.01118    -0.01761     0.00213     0.01002     0.00195    -0.00368
 PX  C   6   0.17346     0.17683     0.12635     0.01402    -0.03082    -0.12226
 PY  C   6  -0.15106     0.14814    -0.18199     0.00797     0.08192    -0.08311
 PZ  C   6  -0.02756     0.00030     0.01369     0.33482    -0.03632     0.09224
  
  S  C   7  -0.01428    -0.07712    -0.01124     0.01080     0.05300    -0.00118
 PX  C   7  -0.03776     0.13456     0.10684     0.02504    -0.07350    -0.23214
 PY  C   7   0.11821     0.00438    -0.04305     0.06458     0.20830    -0.11350
 PZ  C   7   0.00518    -0.04369    -0.01590    -0.17639    -0.02675    -0.02515
  
  S  C   8   0.00976     0.05556    -0.00780    -0.01234     0.05962     0.01747
 PX  C   8   0.05771    -0.08662    -0.01219    -0.04821     0.09985     0.20626
 PY  C   8  -0.11161    -0.08855     0.11401    -0.06388    -0.17573     0.10186
 PZ  C   8   0.00136    -0.04544     0.02137    -0.14708     0.07541    -0.04153
  
  S  C   9  -0.05086    -0.03242    -0.01171     0.00490    -0.01228    -0.00182
 PX  C   9  -0.08042     0.04073     0.02910     0.04615    -0.13546    -0.21430
 PY  C   9   0.22908    -0.06232     0.09001     0.08799     0.30661    -0.08206
 PZ  C   9   0.02145    -0.04172     0.01540    -0.31035     0.10534    -0.09354
  
  S  C  10  -0.02129     0.06354    -0.01089    -0.00333    -0.00316     0.00083
 PX  C  10   0.16674    -0.02458     0.06008    -0.03770     0.15931     0.24090
 PY  C  10  -0.19957     0.00115    -0.04265    -0.05017    -0.30010     0.11363
 PZ  C  10   0.00044    -0.03296    -0.03038    -0.33242    -0.03484    -0.07034
  
  S  C  11  -0.01756    -0.09384     0.01579     0.01432     0.04800     0.00698
 PX  C  11  -0.16417    -0.03509    -0.03544     0.06240    -0.11081    -0.23481
 PY  C  11  -0.02192    -0.13291     0.13701     0.02280     0.16351    -0.11149
 PZ  C  11  -0.00828     0.00957    -0.04953    -0.14587    -0.08673    -0.05711
  
  S  H  12  -0.05879     0.05114    -0.13969     0.00195    -0.20733    -0.02206
  
  S  C  13   0.01203     0.07911     0.02215    -0.00012     0.04963    -0.00162
 PX  C  13  -0.04728     0.11065     0.09166    -0.07849     0.07071     0.20056
 PY  C  13  -0.11923     0.02273    -0.13592    -0.05867    -0.21086     0.10222
 PZ  C  13   0.00554    -0.00649     0.02288    -0.14250     0.08612    -0.05608
  
  S  H  14  -0.12199     0.02087     0.08996    -0.03437    -0.21929    -0.01018
  
  S  H  15  -0.10150     0.24487    -0.10795     0.01923     0.05274    -0.13689
  
  S  H  16   0.13587    -0.03182     0.20605    -0.01539    -0.10311     0.00121
  
  S  H  17   0.17071    -0.01647     0.25158    -0.00499    -0.12865    -0.01866
  
  S  H  18  -0.16522    -0.18804    -0.12759    -0.02692     0.03215     0.12581
  
  S  H  19  -0.11203    -0.00354     0.10630    -0.03479    -0.20359    -0.00666
  
  S  H  20  -0.06097    -0.00333    -0.15551    -0.01622    -0.21500    -0.02104
  
  S  C  21   0.01867    -0.02152     0.02441     0.00428     0.02975     0.03229
 PX  C  21   0.04050    -0.24210    -0.11810     0.06753    -0.07661    -0.21434
 PY  C  21  -0.21958    -0.09588     0.10745     0.03442     0.05641    -0.07373
 PZ  C  21  -0.00122     0.04294    -0.01162     0.22017    -0.05897     0.06278
  
  S  C  22   0.00813     0.00212    -0.00651     0.00766    -0.00423    -0.01869
 PX  C  22  -0.10718     0.24820     0.08087    -0.05921     0.03331     0.14837
 PY  C  22   0.27663     0.08674    -0.11610    -0.05150    -0.04959     0.07725
 PZ  C  22   0.02307     0.06756    -0.00733     0.27969    -0.04309     0.11837
  
  S  C  23  -0.00454    -0.01438     0.00197    -0.01061     0.00402     0.00691
 PX  C  23   0.11886    -0.21781    -0.07525     0.11097    -0.03647    -0.12590
 PY  C  23  -0.26967    -0.04103     0.12367     0.05018     0.05214    -0.02418
 PZ  C  23   0.02758     0.10002     0.00841     0.26244    -0.00644     0.14271
  
  S  C  24   0.01394     0.01367     0.03566     0.02377     0.03884    -0.01708
 PX  C  24  -0.09598     0.22573     0.04225    -0.09138     0.01142     0.15730
 PY  C  24   0.22090     0.08139    -0.17481    -0.04781    -0.11313     0.08304
 PZ  C  24   0.03258     0.06006     0.01074     0.21198     0.01961     0.08009
  
  S  H  25   0.21989    -0.03165    -0.14791    -0.00751    -0.08365    -0.01728
  
  S  H  26  -0.10250     0.25074     0.07910    -0.07075     0.03224     0.14806
  
  S  H  27  -0.16199    -0.16604     0.06222     0.07957     0.02457    -0.10203
  
  S  H  28   0.23839    -0.02387    -0.16745     0.00149    -0.10223    -0.00979
  
  S  C  29   0.00418     0.04047    -0.01187    -0.00542    -0.00453    -0.00619
 PX  C  29  -0.05927     0.20639     0.13345    -0.06887     0.09063     0.22317
 PY  C  29   0.15724     0.08666    -0.22795    -0.02917    -0.20120     0.10307
 PZ  C  29   0.00373     0.04409    -0.02416     0.07604    -0.06011     0.00307
  
  S  C  30  -0.01383    -0.02176    -0.00383     0.00526    -0.00059     0.01784
 PX  C  30   0.02896    -0.14318    -0.11618     0.07783    -0.11276    -0.19299
 PY  C  30  -0.18556    -0.10989     0.23701     0.03330     0.18806    -0.07843
 PZ  C  30  -0.00360     0.01859     0.04039     0.08914     0.05881    -0.01716




    ROOT NO.   37          38          39          40          41          42

           -10.74447    -9.82795    -9.69768    -8.34932    -8.04430    -6.61473
  
  
  S  C   1  -0.00358     0.00782    -0.00406    -0.00524    -0.00849    -0.00532
 PX  C   1  -0.00067    -0.00500     0.00438     0.00398    -0.00273    -0.00018
 PY  C   1  -0.00601    -0.00475    -0.00057     0.00097    -0.00101     0.00030
 PZ  C   1   0.08848    -0.32356     0.17311     0.25558     0.24588     0.21011
  
  S  C   2   0.00294    -0.00349    -0.00376    -0.00472     0.00621    -0.00088
 PX  C   2  -0.00257     0.00838    -0.01408    -0.01591     0.00448    -0.00633
 PY  C   2   0.00431     0.00623    -0.01332    -0.01837     0.00555    -0.00891
 PZ  C   2   0.21636    -0.09184     0.32581     0.37309    -0.03944     0.22368
  
  S  C   3   0.00411     0.01134     0.00546     0.00158    -0.01564    -0.00810
 PX  C   3   0.00731    -0.00406     0.00658     0.01044    -0.01119     0.00049
 PY  C   3  -0.03317    -0.01093    -0.00814     0.00016     0.01203     0.00582
 PZ  C   3   0.24796     0.25583     0.23237     0.04673    -0.33623    -0.16042
  
  S  C   4   0.00793    -0.00350     0.00280    -0.00039     0.00662    -0.00363
 PX  C   4   0.00020    -0.00684     0.00157    -0.00401     0.01837    -0.00800
 PY  C   4   0.03807    -0.00678     0.01131     0.00303     0.00851    -0.00849
 PZ  C   4  -0.22552     0.27737    -0.21982    -0.07411    -0.35105     0.12517
  
  S  C   5  -0.00185     0.00009    -0.00682    -0.00714    -0.00553    -0.00340
 PX  C   5   0.01300    -0.00008     0.01568     0.01714    -0.00531     0.01105
 PY  C   5  -0.01007    -0.00683    -0.00428    -0.00085     0.00141     0.00186
 PZ  C   5  -0.21694    -0.10149    -0.30687    -0.35735     0.00027    -0.22841
  
  S  C   6   0.00129    -0.00536     0.00152     0.00092     0.00536    -0.00112
 PX  C   6   0.00496     0.01600     0.00532     0.00739    -0.00923     0.00573
 PY  C   6   0.01164     0.01789     0.00762     0.00612    -0.00900     0.00311
 PZ  C   6  -0.11012    -0.33057    -0.15755    -0.20683     0.27250    -0.17002
  
  S  C   7   0.01022    -0.00594    -0.00471     0.00223     0.00303     0.01101
 PX  C   7   0.01801     0.01297     0.00267    -0.01710     0.00649    -0.01445
 PY  C   7   0.01651    -0.00795    -0.01532     0.00376     0.00236     0.01638
 PZ  C   7   0.36542     0.18483     0.17676    -0.21609     0.02087    -0.35801
  
  S  C   8  -0.00281     0.00439    -0.01174     0.00695    -0.00597     0.02092
 PX  C   8   0.02526    -0.01947    -0.00446    -0.00722    -0.01048    -0.00037
 PY  C   8  -0.02934     0.00143     0.00218     0.00056    -0.00040    -0.00190
 PZ  C   8  -0.34541     0.23365    -0.18640     0.19732    -0.03427     0.36987
  
  S  C   9  -0.00412     0.00861     0.00451     0.00118     0.00571    -0.00942
 PX  C   9  -0.03303     0.02257     0.00745     0.01036     0.01879    -0.00157
 PY  C   9   0.07776    -0.00770    -0.01971    -0.01248    -0.00867     0.00469
 PZ  C   9  -0.27791     0.00546     0.00596     0.24070     0.34786     0.00070
  
  S  C  10  -0.00576     0.00070    -0.00576     0.00420    -0.00931     0.00158
 PX  C  10   0.03464    -0.02244    -0.01582     0.00438    -0.01264     0.00714
 PY  C  10  -0.07559     0.01121     0.01939     0.01919    -0.01653    -0.00458
 PZ  C  10   0.27254    -0.02845    -0.03161    -0.22831     0.35653     0.03636
  
  S  C  11   0.00433    -0.00081     0.00079     0.00321    -0.00085    -0.00290
 PX  C  11  -0.04336     0.03159     0.02381     0.01035     0.00256    -0.02335
 PY  C  11   0.07883    -0.02216    -0.03385    -0.01724     0.00290     0.02408
 PZ  C  11   0.28292    -0.23444    -0.23376    -0.18891     0.00515     0.38974
  
  S  H  12  -0.06938     0.01505     0.02454     0.00611    -0.00219    -0.00153
  
  S  C  13   0.01354    -0.00545    -0.00469    -0.00286    -0.00454     0.00405
 PX  C  13   0.01380    -0.01587    -0.00821    -0.00244    -0.01481     0.00371
 PY  C  13  -0.03474     0.00253     0.00577    -0.00544    -0.00860     0.01048
 PZ  C  13  -0.31928    -0.19508     0.21880     0.21482     0.04685    -0.38920
  
  S  H  14  -0.02320     0.00364     0.00868    -0.00131     0.00295    -0.00564
  
  S  H  15   0.00581     0.00638    -0.00029    -0.00037     0.00329     0.00269
  
  S  H  16  -0.00731    -0.00173     0.00019     0.00257     0.00146     0.00271
  
  S  H  17  -0.01187    -0.00394    -0.00404     0.00028     0.00373     0.00369
  
  S  H  18   0.00040    -0.00383     0.00339     0.00386    -0.00116     0.00344
  
  S  H  19  -0.03248     0.00526     0.00770    -0.00027     0.00543    -0.00979
  
  S  H  20  -0.04635     0.00194     0.01547     0.00245    -0.00090    -0.00270
  
  S  C  21   0.01227    -0.00024    -0.00828     0.00097    -0.00215     0.00377
 PX  C  21  -0.01989     0.01018     0.02164    -0.01325     0.00809     0.00370
 PY  C  21   0.00221     0.00679     0.01876    -0.01999     0.00529     0.01311
 PZ  C  21   0.17864     0.12401    -0.35792     0.33991    -0.01664    -0.23213
  
  S  C  22   0.00278     0.00836    -0.00574     0.00662     0.00681    -0.00638
 PX  C  22   0.00627    -0.00365    -0.01102     0.00960    -0.00003    -0.00553
 PY  C  22  -0.00951    -0.02292    -0.00311     0.00327    -0.01387    -0.00028
 PZ  C  22   0.09715     0.36969    -0.18387     0.21096     0.27084    -0.17242
  
  S  C  23   0.00079    -0.00829    -0.00219     0.00402    -0.00445    -0.00567
 PX  C  23  -0.00683     0.05346     0.02275    -0.02746     0.03160     0.02639
 PY  C  23   0.00751     0.03073     0.00823    -0.01026     0.01818     0.00843
 PZ  C  23  -0.05397     0.35791     0.18230    -0.20827     0.26929     0.19741
  
  S  C  24  -0.00282     0.00781     0.03101    -0.03746    -0.00005     0.02828
 PX  C  24  -0.00938    -0.02468     0.00395     0.00170    -0.01510    -0.00439
 PY  C  24  -0.02922    -0.01656    -0.00326     0.01759    -0.01264    -0.01487
 PZ  C  24  -0.16154     0.11315     0.36767    -0.34811    -0.01414     0.22830
  
  S  H  25  -0.01813    -0.00732     0.00469     0.00182    -0.00412    -0.00265
  
  S  H  26   0.00314    -0.01659    -0.00750     0.00594    -0.01038    -0.00198
  
  S  H  27   0.00736     0.02829     0.00444    -0.00677     0.01435     0.00626
  
  S  H  28  -0.01935    -0.00579    -0.00837     0.01958    -0.00653    -0.01592
  
  S  C  29  -0.00361     0.01174     0.01007    -0.00632     0.01728    -0.00410
 PX  C  29   0.01244    -0.00875    -0.00761     0.00338    -0.00259     0.00129
 PY  C  29  -0.07418     0.01316     0.03134     0.00829     0.00300    -0.01216
 PZ  C  29   0.17097    -0.26899    -0.25227     0.06212    -0.34639     0.10922
  
  S  C  30  -0.00326     0.00897    -0.00115     0.00514     0.00311    -0.00475
 PX  C  30  -0.01265     0.02918    -0.00297     0.00573     0.02086     0.00326
 PY  C  30   0.07621     0.02924    -0.04397     0.00243     0.04249     0.01657
 PZ  C  30  -0.18911    -0.25054     0.26017    -0.06731    -0.31807    -0.14452




    ROOT NO.   43          44          45          46          47          48

            -1.12162     0.20035     0.31105     1.25550     1.33330     1.96040
  
  
  S  C   1   0.00951    -0.00981     0.01102     0.01058     0.01536     0.01462
 PX  C   1   0.00089    -0.00377    -0.00085    -0.00191     0.00486     0.00064
 PY  C   1   0.00194     0.00146     0.00240     0.00271    -0.00198     0.00370
 PZ  C   1  -0.20718     0.25572    -0.22959    -0.18476    -0.32818    -0.07976
  
  S  C   2  -0.00568     0.00811    -0.00411    -0.00308    -0.01405    -0.01405
 PX  C   2  -0.00494     0.00227    -0.00424    -0.00302    -0.00397    -0.00387
 PY  C   2  -0.00947     0.00489    -0.00946    -0.00726    -0.00949    -0.00788
 PZ  C   2   0.23448     0.01665     0.34894     0.35042     0.10488     0.20375
  
  S  C   3   0.00690    -0.02129    -0.00146    -0.00892     0.02440     0.00851
 PX  C   3   0.00015    -0.00352    -0.00384    -0.00462    -0.00001    -0.00059
 PY  C   3  -0.00777     0.01196    -0.00011     0.00773    -0.00750     0.01181
 PZ  C   3   0.15507    -0.33839    -0.05076    -0.25419     0.25363    -0.25571
  
  S  C   4   0.00134     0.00157    -0.00124    -0.00075    -0.01651    -0.02062
 PX  C   4  -0.00011    -0.00539     0.00681     0.01293    -0.00189     0.00599
 PY  C   4   0.00498    -0.01612     0.00379    -0.00044     0.00783    -0.00736
 PZ  C   4   0.13610     0.35459    -0.06243    -0.23596    -0.27848    -0.22222
  
  S  C   5   0.00698    -0.00072     0.01201     0.01293     0.00583     0.02198
 PX  C   5  -0.01064    -0.00116    -0.01435    -0.01610     0.01008    -0.00659
 PY  C   5  -0.00173     0.00027    -0.00153    -0.00064     0.00086     0.00064
 PZ  C   5   0.23322     0.00398     0.33545     0.33033    -0.10133     0.20515
  
  S  C   6  -0.00460    -0.00346    -0.00833    -0.01071     0.00009    -0.01809
 PX  C   6   0.00660     0.01126     0.00606     0.00442    -0.01559     0.00031
 PY  C   6   0.00610     0.00429     0.00543     0.00359    -0.00584    -0.00045
 PZ  C   6  -0.18798    -0.26798    -0.20321    -0.16826     0.32837    -0.10182
  
  S  C   7   0.00551     0.01128     0.00542     0.00082    -0.01007    -0.02297
 PX  C   7  -0.00817    -0.00555    -0.00371     0.00266     0.00159     0.00227
 PY  C   7   0.01471     0.00334     0.01130    -0.00544     0.00490    -0.02376
 PZ  C   7  -0.36110    -0.01072    -0.21294     0.16472    -0.17880     0.36206
  
  S  C   8  -0.01818    -0.00020    -0.01199     0.00701     0.02942     0.05332
 PX  C   8   0.00629     0.00107     0.00289    -0.00696     0.00288     0.00167
 PY  C   8   0.00002    -0.00001     0.00055     0.00051    -0.00126     0.00000
 PZ  C   8  -0.36590    -0.03005    -0.19821     0.17675     0.22101     0.34046
  
  S  C   9   0.00490     0.00116     0.00400     0.00251    -0.02486    -0.04586
 PX  C   9  -0.00524    -0.00508    -0.00068     0.00777    -0.00028     0.00098
 PY  C   9   0.00988     0.00801    -0.01616    -0.00442    -0.00139     0.02250
 PZ  C   9  -0.00011    -0.35089     0.23979     0.03031    -0.01033    -0.30819
  
  S  C  10  -0.00088    -0.01195    -0.01304    -0.00646     0.01474     0.04796
 PX  C  10   0.00835    -0.00363    -0.00335    -0.00709     0.00311     0.00710
 PY  C  10  -0.00400    -0.01237    -0.00815     0.00026     0.00470     0.01921
 PZ  C  10  -0.02599     0.35623     0.22290     0.05661    -0.02472    -0.28735
  
  S  C  11  -0.00422    -0.00339     0.00615     0.01803    -0.02693    -0.05016
 PX  C  11  -0.02400    -0.00825     0.00358     0.01692    -0.01484    -0.01001
 PY  C  11   0.01852    -0.00643    -0.00939    -0.00869     0.00324     0.01132
 PZ  C  11   0.37661    -0.00839    -0.15766    -0.25558     0.22150     0.30333
  
  S  H  12   0.00227     0.00160    -0.00306    -0.01368     0.02008     0.03351
  
  S  C  13  -0.01155     0.00339     0.01154    -0.00430     0.02287     0.01800
 PX  C  13  -0.00990     0.00501     0.00947    -0.00559     0.01089    -0.00087
 PY  C  13  -0.01304     0.00019     0.00722     0.00736     0.00288    -0.02024
 PZ  C  13   0.36601     0.03743    -0.17461    -0.24200    -0.18044     0.33667
  
  S  H  14  -0.00341    -0.00415     0.00008     0.00264     0.00460     0.01120
  
  S  H  15  -0.00625     0.00906    -0.00720    -0.00670    -0.01330    -0.00880
  
  S  H  16   0.00009    -0.00018     0.00139     0.00314     0.00417     0.00979
  
  S  H  17  -0.00599     0.00402    -0.00896    -0.00914    -0.00445    -0.01228
  
  S  H  18  -0.00030     0.00436     0.00182     0.00388    -0.00229     0.01030
  
  S  H  19   0.00699     0.00062     0.01053    -0.00366    -0.01718    -0.03589
  
  S  H  20   0.00257    -0.00080    -0.00289     0.00001    -0.00761    -0.00582
  
  S  C  21  -0.00403    -0.01238     0.00707    -0.00237    -0.02620    -0.01016
 PX  C  21   0.00560     0.00293    -0.00454    -0.00215     0.00482     0.00859
 PY  C  21   0.00860    -0.00483    -0.01355     0.01197    -0.00203    -0.00630
 PZ  C  21  -0.24609     0.00642     0.37622    -0.31564    -0.13068     0.16592
  
  S  C  22   0.00620     0.01194    -0.00973     0.00543     0.02719     0.00471
 PX  C  22   0.00251     0.00609    -0.00374     0.00370     0.00606    -0.00424
 PY  C  22  -0.00678    -0.00488     0.00966    -0.00762    -0.00709     0.00279
 PZ  C  22   0.17870     0.26966    -0.21720     0.14998     0.37832    -0.09096
  
  S  C  23   0.00523     0.00110    -0.01375     0.01726    -0.01714    -0.01686
 PX  C  23   0.00929    -0.02542    -0.00227    -0.00458    -0.02565     0.00894
 PY  C  23   0.00965    -0.00566    -0.01226     0.00958    -0.00604    -0.00268
 PZ  C  23   0.21411    -0.26510    -0.24018     0.16425    -0.36645    -0.03699
  
  S  C  24  -0.02683    -0.00174     0.05455    -0.06043     0.03079     0.04579
 PX  C  24  -0.00534     0.00049     0.00327     0.00096    -0.00191    -0.00474
 PY  C  24   0.00230     0.00015    -0.00806     0.00920    -0.00895    -0.00894
 PZ  C  24  -0.23463    -0.01352     0.37947    -0.32207     0.10790     0.13628
  
  S  H  25  -0.00002     0.00632    -0.00190     0.00198     0.01477     0.00335
  
  S  H  26  -0.00659    -0.00530     0.00848    -0.00387    -0.01527    -0.00415
  
  S  H  27  -0.00104     0.00041     0.00743    -0.01047     0.01327     0.01009
  
  S  H  28   0.00976     0.00242    -0.02969     0.03942    -0.01544    -0.03138
  
  S  C  29   0.00791     0.02196     0.00322    -0.02395     0.03520     0.04016
 PX  C  29   0.00417     0.00497    -0.00382     0.00511     0.00389    -0.00909
 PY  C  29  -0.00298     0.01279     0.01062    -0.01006     0.01018     0.00132
 PZ  C  29  -0.11087    -0.33904    -0.09884     0.25795    -0.26908    -0.18144
  
  S  C  30   0.00820    -0.01108    -0.02225     0.03183    -0.03698    -0.03824
 PX  C  30   0.00592    -0.01441    -0.00531     0.00784    -0.01346    -0.00418
 PY  C  30   0.02548    -0.02169    -0.00787    -0.01295    -0.01858     0.01860
 PZ  C  30  -0.13479     0.32686    -0.09983     0.26273     0.25595    -0.20251




    ROOT NO.   49          50          51          52          53          54

             2.37954     2.51642     2.83148     3.13063     3.29580     3.38102
  
  
  S  C   1  -0.03435    -0.14675    -0.17763    -0.12096     0.20808    -0.13143
 PX  C   1  -0.00616    -0.02532    -0.00956     0.00236    -0.02224    -0.08357
 PY  C   1  -0.01119    -0.02059    -0.03047    -0.01292     0.03102     0.04961
 PZ  C   1  -0.30744     0.09366    -0.10085     0.22241     0.09513     0.02798
  
  S  C   2   0.05509     0.18404     0.18780     0.08838    -0.12534     0.23077
 PX  C   2   0.00748     0.01954    -0.00434    -0.02039     0.05753     0.02501
 PY  C   2   0.01433     0.05447     0.03471     0.00416     0.01449     0.03438
 PZ  C   2   0.21351    -0.05651     0.08835    -0.23220    -0.09690    -0.04360
  
  S  C   3  -0.09320    -0.25841    -0.21854    -0.04313     0.02549    -0.19799
 PX  C   3  -0.00523     0.01159     0.05932     0.03918    -0.07617    -0.07227
 PY  C   3  -0.01708    -0.03870    -0.02368    -0.00192    -0.03248     0.10943
 PZ  C   3  -0.03276     0.00649    -0.05932     0.27587     0.11944     0.09182
  
  S  C   4   0.09796     0.27242     0.23786     0.06015    -0.02411    -0.16053
 PX  C   4   0.00597     0.02495    -0.02363    -0.01890     0.08115     0.06866
 PY  C   4  -0.00961    -0.02824    -0.06160    -0.01450     0.05914    -0.12919
 PZ  C   4   0.03683    -0.04676     0.07122    -0.27746    -0.12924    -0.07218
  
  S  C   5  -0.07982    -0.20410    -0.23379    -0.09201     0.15811     0.20177
 PX  C   5  -0.01156    -0.06231    -0.02614    -0.00419    -0.05218     0.03393
 PY  C   5  -0.00033     0.00139     0.00982     0.01375    -0.03001     0.01803
 PZ  C   5  -0.22102     0.11127    -0.07352     0.25200     0.08721     0.03756
  
  S  C   6   0.05627     0.15260     0.20279     0.11532    -0.22326    -0.09529
 PX  C   6  -0.00212     0.03738     0.02794     0.02309    -0.01371     0.01083
 PY  C   6   0.00559     0.01824     0.00870    -0.00720     0.02628    -0.10140
 PZ  C   6   0.31240    -0.12570     0.08649    -0.24131    -0.08145    -0.03195
  
  S  C   7   0.09868     0.22199     0.08286    -0.02290     0.14819     0.25761
 PX  C   7  -0.00525    -0.02694    -0.08395    -0.03755     0.07603    -0.00486
 PY  C   7   0.02700     0.02897    -0.02946    -0.01968     0.06599     0.02952
 PZ  C   7  -0.14259     0.11464     0.01116    -0.12613    -0.06622    -0.05719
  
  S  C   8  -0.08705    -0.23675    -0.09917     0.01737    -0.17153     0.22787
 PX  C   8  -0.01901    -0.01010     0.06805     0.03491    -0.10639     0.01710
 PY  C   8   0.01672     0.04862     0.06153     0.02241    -0.03436    -0.01445
 PZ  C   8   0.15975    -0.00993    -0.01352     0.11963     0.10252     0.04475
  
  S  C   9   0.11564     0.23357    -0.02999    -0.07206     0.32001    -0.18447
 PX  C   9   0.01197    -0.00553    -0.07355    -0.01949     0.02501     0.06163
 PY  C   9   0.00225    -0.02955    -0.02757     0.01891    -0.06735    -0.13796
 PZ  C   9  -0.30888     0.11297    -0.02635     0.03258    -0.05973    -0.07497
  
  S  C  10  -0.12017    -0.22537     0.04498     0.09175    -0.29922    -0.21696
 PX  C  10  -0.00401     0.02452     0.06444     0.01663     0.05317    -0.07807
 PY  C  10  -0.02307    -0.01484     0.03622     0.02226    -0.07812     0.12126
 PZ  C  10   0.28075    -0.19389     0.04255    -0.01600     0.02491     0.06553
  
  S  C  11   0.10958     0.18305    -0.14786    -0.10387     0.12408     0.24846
 PX  C  11  -0.00760    -0.03743    -0.04455    -0.00116    -0.10712    -0.03285
 PY  C  11   0.01101     0.02804    -0.05827    -0.00187    -0.03653     0.00378
 PZ  C  11  -0.08981     0.10859    -0.06558     0.14498     0.02144    -0.04091
  
  S  H  12  -0.06152    -0.09407     0.07965     0.06769    -0.08805    -0.10613
  
  S  C  13  -0.11598    -0.18735     0.14307     0.04457    -0.14444     0.26067
 PX  C  13  -0.02086    -0.00199     0.07630    -0.00486     0.07228     0.02119
 PY  C  13   0.01329     0.04354     0.01467    -0.00999     0.07540    -0.02310
 PZ  C  13   0.13264    -0.03518     0.03466    -0.16087    -0.00465     0.05229
  
  S  H  14  -0.05339    -0.12497    -0.05336     0.01218    -0.10067    -0.11395
  
  S  H  15   0.01863     0.09362     0.10931     0.07733    -0.12971     0.09386
  
  S  H  16  -0.03198    -0.10591    -0.11923    -0.06054     0.08873    -0.12218
  
  S  H  17   0.04755     0.12084     0.15152     0.06011    -0.11998    -0.10460
  
  S  H  18  -0.03735    -0.09519    -0.12581    -0.07025     0.13697     0.07285
  
  S  H  19   0.04194     0.12980     0.05788    -0.01749     0.11459    -0.09552
  
  S  H  20   0.05792     0.09851    -0.08716    -0.03115     0.08155    -0.10952
  
  S  C  21   0.10607     0.12815    -0.27305    -0.00235    -0.21237     0.16771
 PX  C  21  -0.01816    -0.04283     0.03149     0.04042    -0.04813    -0.02907
 PY  C  21   0.00355     0.00565    -0.02437     0.01005    -0.04521    -0.00096
 PZ  C  21   0.23045    -0.10757    -0.01080     0.24090     0.07115    -0.02271
  
  S  C  22  -0.09890    -0.08396     0.24208    -0.06249     0.26789    -0.10147
 PX  C  22   0.00936     0.02127    -0.03294    -0.00181    -0.01453    -0.01768
 PY  C  22   0.00748     0.01276    -0.00970    -0.02252     0.01315     0.08176
 PZ  C  22  -0.27748     0.16540    -0.02742    -0.21529    -0.08153     0.01401
  
  S  C  23   0.09854     0.07257    -0.21754     0.09164    -0.21780    -0.11425
 PX  C  23   0.00255    -0.02366     0.01056     0.01203    -0.03318     0.06959
 PY  C  23  -0.00757    -0.02034     0.04363     0.00180     0.05510    -0.05484
 PZ  C  23   0.25668    -0.17855     0.03656     0.21391     0.07169     0.01042
  
  S  C  24  -0.12614    -0.09105     0.21875    -0.06798     0.10506     0.20072
 PX  C  24   0.00303     0.01832     0.01042    -0.03299     0.07034    -0.02487
 PY  C  24   0.02862     0.03801    -0.04514    -0.01469     0.00969    -0.04263
 PZ  C  24  -0.16637     0.15997    -0.05505    -0.23181    -0.08253    -0.03900
  
  S  H  25  -0.06538    -0.07464     0.17674    -0.00697     0.15181    -0.08163
  
  S  H  26   0.06160     0.05487    -0.15239     0.03625    -0.16974     0.08674
  
  S  H  27  -0.06456    -0.04482     0.13461    -0.06142     0.13244     0.09333
  
  S  H  28   0.07186     0.04709    -0.13185     0.04502    -0.07302    -0.09273
  
  S  C  29  -0.11705    -0.18465     0.27552     0.08354     0.07076    -0.14476
 PX  C  29   0.00720     0.02567     0.02306    -0.02126     0.09538    -0.03688
 PY  C  29  -0.00475     0.00140     0.03900    -0.01146     0.04543     0.14624
 PZ  C  29  -0.11777     0.00597     0.07967    -0.30396    -0.05947     0.03125
  
  S  C  30   0.13826     0.17562    -0.26051    -0.02898    -0.02163    -0.21248
 PX  C  30   0.00147    -0.01876    -0.04632     0.00456    -0.08868     0.09127
 PY  C  30  -0.00654    -0.03268     0.02900     0.02940    -0.01271    -0.10105
 PZ  C  30   0.07773    -0.06535    -0.03044     0.31664     0.06236    -0.03163




    ROOT NO.   55          56          57          58          59          60

             3.56052     3.69616     3.73603     3.84887     4.17961     4.28807
  
  
  S  C   1  -0.24435     0.20968     0.16508    -0.17919     0.09242     0.01157
 PX  C   1   0.06378    -0.01799    -0.07938    -0.10710     0.09700    -0.04436
 PY  C   1  -0.03603     0.00235     0.03414     0.06411    -0.03140    -0.01136
 PZ  C   1   0.07065     0.09889     0.01426    -0.01520     0.00634    -0.00018
  
  S  C   2   0.02426    -0.07924     0.07953     0.30205    -0.24070     0.08984
 PX  C   2  -0.11752     0.08563     0.11582    -0.00305     0.00258     0.01296
 PY  C   2  -0.06936     0.05521     0.07847    -0.02394     0.06195    -0.02508
 PZ  C   2  -0.10137    -0.11625    -0.00892     0.00597    -0.00402     0.00484
  
  S  C   3   0.20917    -0.11865    -0.28140    -0.12294    -0.00517     0.04851
 PX  C   3   0.01898     0.02643     0.04853     0.00591    -0.13102     0.13504
 PY  C   3   0.06100    -0.10729    -0.05313     0.14469    -0.06687    -0.01414
 PZ  C   3   0.16307     0.20405     0.03319     0.01838    -0.00456    -0.01172
  
  S  C   4  -0.15973     0.21834     0.20701    -0.14810    -0.02115     0.09446
 PX  C   4  -0.08653     0.02791     0.06513     0.12314    -0.12453     0.04776
 PY  C   4   0.05987    -0.01356    -0.12721    -0.06285    -0.07006     0.09293
 PZ  C   4  -0.17765    -0.19733    -0.00859    -0.00110     0.00071     0.00324
  
  S  C   5  -0.08475    -0.06176     0.03080     0.29076    -0.23653     0.07003
 PX  C   5   0.11041    -0.10621    -0.12322    -0.00161     0.06706    -0.04409
 PY  C   5   0.05284    -0.04974    -0.04457     0.05006    -0.06345     0.02792
 PZ  C   5   0.11974     0.11387    -0.00176    -0.01619     0.01380    -0.00620
  
  S  C   6   0.26772    -0.13532    -0.21509    -0.10016     0.06409    -0.00677
 PX  C   6   0.00556     0.00447     0.01082     0.00605     0.01805    -0.02530
 PY  C   6  -0.05320     0.09052     0.04245    -0.15181     0.11203    -0.02079
 PZ  C   6  -0.09405    -0.08827     0.00005     0.00975    -0.00322     0.00001
  
  S  C   7  -0.14774     0.01767     0.01947     0.07981     0.23431    -0.29986
 PX  C   7   0.05369    -0.06110    -0.14878    -0.04443     0.05264    -0.02091
 PY  C   7   0.01937    -0.01641    -0.08172    -0.02487    -0.01020     0.06255
 PZ  C   7  -0.17153    -0.19867    -0.01457    -0.01424     0.01354     0.01085
  
  S  C   8   0.10258    -0.11518     0.07856     0.06222     0.25000    -0.26798
 PX  C   8  -0.04145     0.05349     0.12608    -0.06588     0.01745     0.06442
 PY  C   8  -0.03528     0.05483     0.08086    -0.03755     0.04724    -0.02723
 PZ  C   8   0.15943     0.19905    -0.00563     0.00293    -0.02765     0.02770
  
  S  C   9   0.00055    -0.01812    -0.28459     0.04075    -0.14795    -0.03657
 PX  C   9   0.04732    -0.06651    -0.01024     0.05607     0.09105    -0.15843
 PY  C   9   0.04853     0.01491     0.11225     0.03498    -0.10461    -0.07005
 PZ  C   9  -0.21976    -0.25528     0.01056    -0.02426     0.01050    -0.00456
  
  S  C  10   0.02767     0.07995     0.26820    -0.00743    -0.14721     0.02868
 PX  C  10  -0.05481     0.02983    -0.05039     0.07879    -0.06152    -0.16635
 PY  C  10  -0.04250     0.00255     0.11016     0.01432     0.12758    -0.07648
 PZ  C  10   0.21931     0.26508     0.01742     0.02750    -0.01804    -0.02415
  
  S  C  11   0.08942    -0.11539    -0.02091    -0.13059     0.18055     0.31570
 PX  C  11   0.05292     0.01103     0.13043    -0.06285    -0.02609     0.07161
 PY  C  11   0.02319    -0.03051     0.07080    -0.03932    -0.04314    -0.04580
 PZ  C  11  -0.14763    -0.20426     0.01117    -0.03766     0.01761     0.04572
  
  S  H  12  -0.07685     0.06665     0.01390     0.06515    -0.13473    -0.29234
  
  S  C  13  -0.11808     0.07616    -0.04483    -0.10205     0.15967     0.31169
 PX  C  13  -0.05681     0.02966    -0.14514    -0.03554    -0.05187    -0.02675
 PY  C  13  -0.02106     0.00206    -0.10027    -0.01578    -0.00221     0.05878
 PZ  C  13   0.16029     0.19704    -0.01572     0.03272     0.00376     0.00999
  
  S  H  14   0.10314    -0.02741    -0.01018    -0.03935    -0.18231     0.27630
  
  S  H  15   0.15602    -0.13670    -0.10784     0.10900    -0.02063    -0.04622
  
  S  H  16  -0.02517     0.04987    -0.05157    -0.20870     0.21937    -0.10676
  
  S  H  17   0.06286     0.02983    -0.02070    -0.21048     0.23746    -0.10431
  
  S  H  18  -0.16926     0.08431     0.14002     0.05956    -0.00236    -0.03208
  
  S  H  19  -0.08413     0.06648    -0.05929    -0.02380    -0.19631     0.24861
  
  S  H  20   0.07463    -0.06187     0.03612     0.04199    -0.11851    -0.27987
  
  S  C  21  -0.04302     0.03506    -0.00529    -0.27535    -0.24764    -0.13490
 PX  C  21  -0.10125     0.09338    -0.14769     0.03938    -0.04436    -0.04664
 PY  C  21  -0.04677     0.05178    -0.06926     0.04509     0.04490     0.03188
 PZ  C  21  -0.08416    -0.12783     0.01881    -0.02113     0.01242     0.01845
  
  S  C  22   0.20174    -0.18165     0.24997     0.05131     0.06399     0.01605
 PX  C  22   0.01009    -0.00559     0.02421     0.01208    -0.01357    -0.03613
 PY  C  22   0.03677    -0.04632     0.05385    -0.15916    -0.12318    -0.05557
 PZ  C  22   0.05185     0.10401    -0.02817     0.02077    -0.00617    -0.00841
  
  S  C  23  -0.16897     0.16867    -0.19154     0.24017     0.12752     0.02306
 PX  C  23  -0.05548     0.04176    -0.08200    -0.08057    -0.08568    -0.05946
 PY  C  23   0.03712    -0.03615     0.05344     0.06597     0.04909     0.00387
 PZ  C  23  -0.06441    -0.09557     0.01115    -0.04311    -0.00637     0.00647
  
  S  C  24  -0.00379    -0.00703    -0.07669    -0.29146    -0.24933    -0.14945
 PX  C  24   0.09998    -0.08446     0.13520    -0.03852    -0.02052     0.00268
 PY  C  24   0.05254    -0.02978     0.07082    -0.01486    -0.05298    -0.04606
 PZ  C  24   0.09864     0.12539     0.00645     0.10532     0.05875     0.02679
  
  S  H  25   0.03138    -0.02999    -0.00337     0.19050     0.22529     0.15453
  
  S  H  26  -0.13396     0.11929    -0.17388    -0.03845    -0.01060     0.03882
  
  S  H  27   0.10524    -0.10675     0.11845    -0.16447    -0.06090     0.02730
  
  S  H  28  -0.00334    -0.00101     0.05129     0.17909     0.20597     0.15755
  
  S  C  29  -0.15915     0.12763    -0.25020     0.20633     0.01657    -0.08951
 PX  C  29   0.05833    -0.05769     0.04971     0.09415     0.13323     0.09491
 PY  C  29  -0.04070    -0.00268    -0.09968    -0.08507     0.04494     0.11259
 PZ  C  29   0.14829     0.22905    -0.04320     0.06399    -0.00126    -0.02716
  
  S  C  30   0.18905    -0.11651     0.30175     0.11143     0.02313    -0.04468
 PX  C  30  -0.00700     0.00623     0.04131    -0.02419     0.10031     0.15527
 PY  C  30  -0.04299     0.05663    -0.06039     0.16876     0.08856     0.00880
 PZ  C  30  -0.17005    -0.21478     0.01615    -0.05976    -0.00822     0.00733




    ROOT NO.   61          62          63          64          65          66

             5.20765     5.27756     5.31708     5.59060     6.06405     6.41515
  
  
  S  C   1   0.02202    -0.23242    -0.15269    -0.15777     0.05940    -0.01488
 PX  C   1  -0.09392     0.03731     0.11215     0.19955    -0.09859     0.02431
 PY  C   1   0.05311     0.26483     0.10261     0.07486    -0.03868     0.01330
 PZ  C   1  -0.00170    -0.01845    -0.00894    -0.00729     0.00245    -0.00046
  
  S  C   2   0.12559    -0.02271    -0.12669    -0.22061     0.09826    -0.02618
 PX  C   2   0.03827    -0.13631    -0.11119    -0.13211     0.05487    -0.01827
 PY  C   2  -0.02901     0.03078     0.05524     0.16175    -0.16201     0.07729
 PZ  C   2   0.00320     0.00424    -0.00016     0.00062    -0.00231     0.00092
  
  S  C   3  -0.02657     0.03212     0.01635    -0.07159     0.13527    -0.06849
 PX  C   3   0.11650     0.03787    -0.07548    -0.04031    -0.11635     0.08727
 PY  C   3   0.03707    -0.00522    -0.04443    -0.15147     0.15297    -0.08305
 PZ  C   3   0.00115    -0.00031     0.00034     0.00061    -0.00340     0.00179
  
  S  C   4   0.02092    -0.01326    -0.00854     0.10974    -0.16886     0.09352
 PX  C   4  -0.08123    -0.03602     0.06084     0.12249    -0.04947     0.01027
 PY  C   4  -0.06397     0.06171     0.06331    -0.01563     0.16753    -0.10545
 PZ  C   4  -0.00023    -0.00291    -0.00061     0.00432    -0.00332     0.00140
  
  S  C   5  -0.12994    -0.10544     0.06921     0.16374    -0.06856     0.01333
 PX  C   5   0.00129     0.01282    -0.01463    -0.11220     0.15223    -0.08340
 PY  C   5  -0.13676    -0.24717     0.00201     0.15140    -0.13075     0.06029
 PZ  C   5   0.00355     0.00408    -0.00249    -0.01091     0.01024    -0.00502
  
  S  C   6  -0.14562    -0.29935    -0.03461     0.06284    -0.02566     0.00302
 PX  C   6   0.11577     0.30185     0.05800    -0.04035     0.02692    -0.00239
 PY  C   6   0.07092    -0.03833    -0.09412    -0.15726     0.07379    -0.01838
 PZ  C   6   0.00868     0.02222     0.00445    -0.00153     0.00042     0.00051
  
  S  C   7  -0.17914    -0.06841     0.10839     0.04522     0.14176    -0.10610
 PX  C   7  -0.05712    -0.03361     0.00648    -0.05215     0.11574    -0.06914
 PY  C   7   0.06198     0.03440    -0.06557    -0.06233    -0.15348     0.22226
 PZ  C   7   0.00277    -0.00062    -0.00444    -0.00075    -0.00517     0.00612
  
  S  C   8   0.15407    -0.06164    -0.13017    -0.07054    -0.15079     0.10487
 PX  C   8  -0.03740    -0.01586     0.01747     0.09318     0.06354    -0.11845
 PY  C   8   0.05602    -0.06334    -0.06327     0.01249    -0.20836     0.18410
 PZ  C   8  -0.01720     0.00692     0.01346     0.00539     0.01560    -0.00989
  
  S  C   9   0.02187     0.03887     0.00534    -0.11959    -0.06110     0.15218
 PX  C   9   0.12000    -0.03195    -0.09290    -0.04358    -0.12502     0.09044
 PY  C   9   0.09583    -0.01529    -0.00532     0.10910     0.00907    -0.19454
 PZ  C   9   0.01188    -0.00343    -0.00653     0.00637    -0.00455    -0.00737
  
  S  C  10   0.01960     0.00084     0.05344     0.11974     0.06464    -0.17327
 PX  C  10  -0.10875     0.00758     0.09255    -0.08366     0.05893     0.11515
[...]
  S   H   18    0.0412   -0.0078   -0.0657   -0.0755   -0.0021    0.0054    0.2894   -0.1050
  S   H   19    0.2454   -0.2126    0.2646    0.0522   -0.1598   -0.0076    0.0609   -0.0528
  S   H   20   -0.1006   -0.2453    0.2837   -0.2377    0.0348    0.0452   -0.0135    0.0002
  S   C   21   -0.1117   -0.0518   -0.0047    0.0027    0.0136    0.0612   -0.0004   -0.0784
  Px  C   21   -0.1559   -0.1491   -0.1303    0.1375   -0.2529   -0.0678    0.0011    0.1354
  Py  C   21    0.1399    0.1084    0.0402   -0.0455    0.0789    0.2998   -0.0030   -0.2376
  Pz  C   21    0.0068    0.0032   -0.0012    0.0010   -0.0008    0.0112   -0.0001   -0.0039
  S   C   22   -0.0363   -0.0085    0.0297   -0.0278    0.0363   -0.1343    0.0015    0.0287
  Px  C   22   -0.0578   -0.0255    0.0357   -0.0353    0.0329    0.5036   -0.0044   -0.0563
  Py  C   22   -0.1016   -0.0496   -0.0233    0.0236   -0.0483   -0.0598    0.0013   -0.1133
  Pz  C   22    0.0013    0.0003   -0.0031    0.0031   -0.0047   -0.0080    0.0001   -0.0033
  S   C   23    0.0771    0.0339    0.0276   -0.0270    0.0382    0.1035   -0.0011    0.0618
  Px  C   23    0.1231    0.0532   -0.0206    0.0174   -0.0271   -0.2124    0.0012   -0.1674
  Py  C   23    0.0381    0.0249    0.0362   -0.0367    0.0529   -0.4674    0.0049   -0.1304
  Pz  C   23   -0.0037   -0.0014    0.0025   -0.0024    0.0052    0.0335   -0.0003    0.0194
  S   C   24    0.1364    0.0588   -0.0318    0.0265   -0.0084   -0.0539    0.0009   -0.0501
  Px  C   24   -0.0712   -0.0377   -0.0348    0.0354   -0.0715   -0.1806    0.0012   -0.1710
  Py  C   24    0.1656    0.1132   -0.1716    0.1754   -0.2859    0.1978   -0.0058    0.1218
  Pz  C   24   -0.0235   -0.0087    0.0030   -0.0018   -0.0039    0.0088   -0.0002    0.0095
  S   H   25    0.2080    0.1482    0.0787   -0.0841    0.1390    0.1773   -0.0019   -0.1548
  S   H   26    0.0700    0.0316   -0.0301    0.0284   -0.0208   -0.2927    0.0025    0.0295
  S   H   27   -0.1234   -0.0586   -0.0171    0.0180   -0.0200    0.3166   -0.0027    0.1218
  S   H   28   -0.2145   -0.1184    0.1278   -0.1276    0.1842   -0.1524    0.0035   -0.1085
  S   C   29   -0.1901   -0.1765   -0.0950    0.1024   -0.2292    0.0073   -0.0014    0.0016
  Px  C   29    0.0667    0.0270   -0.0170    0.0239   -0.1151   -0.0881    0.0022    0.2145
  Py  C   29   -0.1191   -0.1491    0.0630   -0.0644    0.1562   -0.0393   -0.0001    0.1514
  Pz  C   29   -0.0166   -0.0136    0.0015   -0.0005   -0.0131   -0.0014   -0.0001    0.0089
  S   C   30    0.1316    0.1088   -0.1316    0.1352   -0.2573   -0.0059   -0.0005   -0.0170
  Px  C   30    0.0812    0.1328    0.0213   -0.0223    0.0678    0.0670   -0.0018    0.0097
  Py  C   30   -0.1687   -0.1438   -0.0111    0.0216   -0.1495    0.0449   -0.0053    0.0302
  Pz  C   30   -0.0037   -0.0051   -0.0090    0.0085   -0.0117    0.0092   -0.0006    0.0035


   Root No.      73        74        75        76        77        78        79        80

                73 ????   28 ag     25 au     26 au     77 ????   78 ????   79 ????   80 ????

                 9.308     9.482    10.093    10.689    11.106    11.555    11.712    12.203
  
  S   C    1    0.0697   -0.0616    0.0551   -0.0718    0.0363    0.0215   -0.0041    0.0036
  Px  C    1    0.1358   -0.1889   -0.0740   -0.2027   -0.1528   -0.0906    0.1619   -0.2088
  Py  C    1    0.1670   -0.0670    0.2351   -0.0591    0.1941    0.1086   -0.1164    0.1450
  Pz  C    1    0.0021   -0.0017    0.0016   -0.0021    0.0006    0.0003   -0.0003   -0.0000
  S   C    2   -0.0281    0.0720    0.0857    0.0254    0.0950    0.0509   -0.0114    0.0205
  Px  C    2    0.1598   -0.2035   -0.0026   -0.2405   -0.0593   -0.0327    0.1591   -0.1987
  Py  C    2   -0.0375    0.1639    0.2375   -0.0540    0.2079    0.1068    0.0805   -0.0683
  Pz  C    2    0.0035    0.0010    0.0100   -0.0085    0.0065    0.0030    0.0071   -0.0073
  S   C    3   -0.0296    0.0402    0.0029    0.0574    0.0211    0.0085   -0.0238    0.0200
  Px  C    3    0.0364    0.1513    0.2819   -0.0618   -0.1006   -0.1421   -0.1994    0.0586
  Py  C    3    0.0235    0.0210    0.1684   -0.1161    0.3328    0.2161    0.2782   -0.1952
  Pz  C    3    0.0020   -0.0027    0.0029   -0.0064    0.0101    0.0076    0.0116   -0.0077
  S   C    4   -0.0162    0.0494    0.0002    0.0644   -0.0275   -0.0224    0.0181   -0.0213
  Px  C    4   -0.1965    0.0923   -0.2639   -0.0898   -0.2489   -0.1005   -0.1029    0.1160
  Py  C    4   -0.1540    0.0880   -0.1343   -0.0017    0.2423    0.2235    0.3239   -0.1604
  Pz  C    4   -0.0107    0.0056   -0.0110   -0.0021    0.0004    0.0038    0.0063   -0.0013
  S   C    5   -0.0820    0.0873   -0.0777    0.0397   -0.0920   -0.0516    0.0199   -0.0296
  Px  C    5   -0.1219    0.0246   -0.1803   -0.1413   -0.1584   -0.0550   -0.1181    0.1428
  Py  C    5    0.1771   -0.2533    0.0702   -0.1847    0.1126    0.0830   -0.0914    0.1374
  Pz  C    5   -0.0020   -0.0014   -0.0048   -0.0064   -0.0042   -0.0012   -0.0050    0.0063
  S   C    6    0.0077   -0.0690   -0.0697   -0.0749   -0.0521   -0.0194    0.0086   -0.0042
  Px  C    6    0.0050   -0.1799   -0.1802   -0.1577   -0.1121   -0.0396    0.0244   -0.0172
  Py  C    6    0.1226   -0.1254    0.1616   -0.1376    0.2026    0.1375   -0.1873    0.2492
  Pz  C    6    0.0046   -0.0101   -0.0001   -0.0093    0.0031    0.0031   -0.0048    0.0069
  S   C    7   -0.0447   -0.0360   -0.0923    0.0806    0.0735    0.0743   -0.0056    0.0090
  Px  C    7   -0.0048    0.1440    0.1872    0.0124   -0.0530   -0.0750   -0.2207    0.0787
  Py  C    7   -0.1339   -0.0497   -0.1450    0.2209    0.1425    0.1408   -0.1312    0.0382
  Pz  C    7   -0.0057   -0.0069   -0.0137    0.0092    0.0084    0.0093    0.0015   -0.0006
  S   C    8    0.1100   -0.0190    0.0873    0.0810   -0.0546   -0.0769   -0.0024   -0.0080
  Px  C    8    0.1673    0.0811    0.0329    0.2277   -0.0816   -0.1031    0.2388   -0.0973
  Py  C    8   -0.3087    0.1037   -0.2066   -0.1084    0.0945    0.1381    0.1290   -0.0563
  Pz  C    8   -0.0042    0.0025   -0.0051   -0.0019    0.0020    0.0030    0.0046   -0.0014
  S   C    9    0.0006   -0.0408    0.0294   -0.0095   -0.0091   -0.0076   -0.0253   -0.0061
  Px  C    9    0.2595    0.0595    0.0942    0.2741   -0.1492   -0.1584    0.2145   -0.0998
  Py  C    9    0.1905   -0.0020   -0.1450    0.1424   -0.0827    0.3389   -0.2512   -0.0323
  Pz  C    9    0.0019   -0.0005   -0.0077    0.0012   -0.0012    0.0158   -0.0129    0.0006
  S   C   10    0.0161   -0.0374   -0.0428   -0.0111    0.0123    0.0159    0.0196    0.0097
  Px  C   10   -0.1862   -0.0572    0.0635    0.2162    0.1823   -0.2134    0.0925    0.0661
  Py  C   10   -0.0728    0.0318   -0.1489    0.1418    0.0953    0.2969   -0.3117    0.0551
  Pz  C   10   -0.0042   -0.0013   -0.0075    0.0092    0.0063    0.0092   -0.0106    0.0049
  S   C   11    0.0794   -0.0129   -0.0702   -0.0810   -0.0267    0.0635    0.0171    0.0262
  Px  C   11   -0.1136   -0.0720    0.0007    0.1699    0.1515   -0.1562    0.1159    0.0946
  Py  C   11    0.1751   -0.0981   -0.1874   -0.1012    0.0298    0.0629    0.0919    0.1501
  Pz  C   11   -0.0146    0.0005    0.0095    0.0104    0.0062   -0.0109    0.0015   -0.0009
  S   H   12    0.1241   -0.0263   -0.0991   -0.0840   -0.0274    0.0868    0.0108    0.0526
  S   C   13   -0.1203   -0.0466    0.0665   -0.0984    0.0206   -0.0629   -0.0143   -0.0143
  Px  C   13   -0.1331   -0.1636    0.1402    0.0002   -0.0873    0.0214   -0.1484   -0.1698
  Py  C   13    0.3182    0.0815   -0.1075    0.2383   -0.0903    0.1639   -0.0579   -0.0172
  Pz  C   13    0.0063    0.0009    0.0009    0.0054   -0.0032    0.0028   -0.0045   -0.0030
  S   H   14   -0.0656   -0.0628   -0.1224    0.0955    0.0876    0.1003   -0.0054   -0.0056
  S   H   15    0.1265   -0.0876    0.1006   -0.0885    0.0560    0.0297   -0.0083    0.0107
  S   H   16   -0.0654    0.1393    0.1162    0.0412    0.1240    0.0664   -0.0010    0.0202
  S   H   17   -0.1143    0.1244   -0.0788    0.0490   -0.1013   -0.0596    0.0054   -0.0236
  S   H   18    0.0029   -0.1057   -0.1024   -0.0917   -0.0634   -0.0224    0.0106   -0.0076
  S   H   19    0.2036   -0.0264    0.1091    0.1070   -0.0761   -0.1048    0.0020    0.0052
  S   H   20   -0.1987   -0.0900    0.1028   -0.1028    0.0194   -0.0885   -0.0128   -0.0485
  S   C   21   -0.0014    0.0845    0.0515   -0.0171   -0.0908    0.0885    0.0392    0.0180
  Px  C   21    0.0790   -0.0166   -0.1325   -0.1846    0.0958   -0.0274   -0.1258   -0.2394
  Py  C   21    0.0424    0.3151    0.0730   -0.1532   -0.1670    0.1901    0.0354   -0.0771
  Pz  C   21    0.0037    0.0095   -0.0015   -0.0091   -0.0022    0.0047   -0.0025   -0.0089
  S   C   22   -0.0471   -0.0876    0.0413    0.0728   -0.0395    0.0321    0.0128    0.0059
  Px  C   22    0.1482    0.2207   -0.1114   -0.1583    0.0847   -0.0619   -0.0252   -0.0096
  Py  C   22   -0.0130    0.1426    0.1057   -0.1267   -0.2538    0.3079    0.0162   -0.1934
  Pz  C   22   -0.0015    0.0034    0.0031   -0.0041   -0.0060    0.0070    0.0014   -0.0024
  S   C   23    0.0127   -0.0713   -0.0337    0.0660    0.0426   -0.0347   -0.0097   -0.0067
  Px  C   23    0.0339    0.2611   -0.0476   -0.2180    0.1552   -0.2160   -0.0072    0.1735
  Py  C   23   -0.0895    0.0747    0.1439   -0.0512   -0.2129    0.2231    0.0296   -0.0934
  Pz  C   23   -0.0006   -0.0263   -0.0012    0.0201   -0.0041    0.0085   -0.0014   -0.0117
  S   C   24    0.0443    0.0967   -0.0527   -0.0272    0.0827   -0.0791   -0.0344   -0.0173
  Px  C   24    0.0215    0.2598   -0.0060   -0.2433    0.0735   -0.1363    0.0300    0.2048
  Py  C   24   -0.1714   -0.2381    0.1515   -0.0602   -0.1657    0.1157    0.1135    0.1659
  Pz  C   24   -0.0099   -0.0186    0.0114    0.0024   -0.0170    0.0156    0.0077    0.0057
  S   H   25    0.0021    0.1625    0.0678   -0.0288   -0.1046    0.0996    0.0500    0.0247
  S   H   26   -0.0869   -0.1268    0.0640    0.0915   -0.0479    0.0354    0.0163    0.0074
  S   H   27    0.0360   -0.1244   -0.0560    0.0975    0.0541   -0.0398   -0.0139   -0.0112
  S   H   28    0.0962    0.1903   -0.0791   -0.0302    0.1042   -0.0961   -0.0528   -0.0346
  S   C   29    0.0145    0.0394   -0.0006   -0.0567   -0.0311    0.0339    0.0088    0.0007
  Px  C   29    0.1025   -0.0893   -0.1989   -0.1508    0.1898   -0.1086   -0.1547   -0.2381
  Py  C   29    0.1155   -0.0771   -0.1425    0.0105   -0.0227    0.1154    0.2708    0.3731
  Pz  C   29    0.0063   -0.0016   -0.0066   -0.0037   -0.0025    0.0069    0.0088    0.0113
  S   C   30   -0.0237    0.0321    0.0065   -0.0716    0.0261   -0.0366   -0.0121    0.0002
  Px  C   30   -0.2218   -0.1815    0.2124   -0.0901   -0.0759   -0.0451   -0.1562   -0.1719
  Py  C   30   -0.0703   -0.0459    0.0845   -0.0991   -0.1691    0.1432    0.2613    0.4016
  Pz  C   30   -0.0123   -0.0103    0.0119   -0.0100   -0.0144    0.0092    0.0168    0.0286


   Root No.      81        82        83        84

                81 ????   82 ????   29 ag     27 au  

                12.574    12.726    13.309    14.723
  
  S   C    1   -0.0612   -0.0303    0.0044    0.0372
  Px  C    1   -0.2579    0.1233    0.1954    0.0892
  Py  C    1    0.0206   -0.1544   -0.1182    0.0281
  Pz  C    1   -0.0025   -0.0009    0.0007    0.0017
  S   C    2   -0.0063   -0.0247   -0.0122    0.0281
  Px  C    2   -0.3070    0.0915    0.1929    0.1330
  Py  C    2   -0.1692   -0.0071    0.0573    0.1163
  Pz  C    2   -0.0136    0.0017    0.0064    0.0072
  S   C    3    0.0145   -0.0027    0.0136    0.0255
  Px  C    3   -0.2608   -0.0500    0.2479    0.2210
  Py  C    3   -0.1875    0.0561    0.0227    0.1022
  Pz  C    3   -0.0044    0.0024   -0.0023   -0.0001
  S   C    4    0.0102    0.0168   -0.0066    0.0249
  Px  C    4   -0.1600   -0.2599   -0.1691    0.2093
  Py  C    4   -0.1075   -0.0528   -0.2058    0.1332
  Pz  C    4   -0.0076   -0.0087   -0.0106    0.0094
  S   C    5   -0.0221    0.0161    0.0149    0.0265
  Px  C    5   -0.1518   -0.2779   -0.1696    0.1750
  Py  C    5   -0.0470   -0.2042   -0.1494    0.0632
  Pz  C    5   -0.0053   -0.0113   -0.0072    0.0064
  S   C    6   -0.0632   -0.0377   -0.0123    0.0396
  Px  C    6   -0.1233   -0.0609   -0.0131    0.0709
  Py  C    6    0.0019   -0.3063   -0.2395    0.0725
  Pz  C    6   -0.0036   -0.0108   -0.0073    0.0040
  S   C    7    0.0503    0.0293    0.0069    0.0192
  Px  C    7   -0.2259   -0.0291    0.2604    0.2451
  Py  C    7   -0.0351    0.0679    0.1506    0.1670
  Pz  C    7    0.0058    0.0038   -0.0012    0.0006
  S   C    8    0.0596    0.0294    0.0051    0.0121
  Px  C    8   -0.0185   -0.1282   -0.2561    0.2644
  Py  C    8   -0.1420   -0.0991   -0.1462    0.1194
  Pz  C    8   -0.0041   -0.0041   -0.0053    0.0034
  S   C    9    0.0467    0.0532   -0.0004    0.0047
  Px  C    9    0.0400   -0.0748   -0.2507    0.2764
  Py  C    9   -0.0797    0.2462   -0.0874    0.1574
  Pz  C    9   -0.0041    0.0101    0.0006    0.0018
  S   C   10    0.0721    0.0083   -0.0022   -0.0003
  Px  C   10    0.0963   -0.1393    0.2285    0.2779
  Py  C   10   -0.1488    0.1550    0.1775    0.1648
  Pz  C   10   -0.0015    0.0043    0.0114    0.0112
  S   C   11    0.0519    0.0259   -0.0017   -0.0170
  Px  C   11    0.1750   -0.1212    0.2310    0.2768
  Py  C   11    0.1818    0.0083    0.1484    0.1348
  Pz  C   11    0.0015   -0.0049    0.0053    0.0077
  S   H   12    0.0294    0.0374    0.0128   -0.0065
  S   C   13    0.0532    0.0232    0.0017   -0.0189
  Px  C   13    0.1213    0.2417   -0.2346    0.2652
  Py  C   13   -0.0565    0.1099   -0.1067    0.1668
  Pz  C   13    0.0008    0.0076   -0.0063    0.0082
  S   H   14    0.0294    0.0415    0.0019    0.0125
  S   H   15   -0.0605   -0.0396   -0.0044    0.0349
  S   H   16    0.0080   -0.0257   -0.0279    0.0136
  S   H   17   -0.0127    0.0247    0.0288    0.0103
  S   H   18   -0.0676   -0.0337   -0.0059    0.0361
  S   H   19    0.0546    0.0004    0.0008    0.0122
  S   H   20    0.0574    0.0064   -0.0177   -0.0031
  S   C   21   -0.0022   -0.0246    0.0135   -0.0261
  Px  C   21    0.3091   -0.0898    0.0955    0.1629
  Py  C   21    0.1707   -0.1106    0.0956    0.0449
  Pz  C   21    0.0127   -0.0060    0.0053    0.0050
  S   C   22   -0.0543   -0.0202   -0.0059   -0.0349
  Px  C   22    0.1111    0.0419    0.0115    0.0694
  Py  C   22    0.2578   -0.2228    0.1569    0.0627
  Pz  C   22    0.0066   -0.0036    0.0036    0.0023
  S   C   23   -0.0536   -0.0271    0.0023   -0.0351
  Px  C   23    0.0213    0.2979   -0.1297    0.0938
  Py  C   23    0.1264   -0.1210    0.0790    0.0271
  Pz  C   23   -0.0053   -0.0192    0.0073   -0.0070
  S   C   24   -0.0290    0.0010   -0.0094   -0.0311
  Px  C   24    0.0688    0.3195   -0.1248    0.1343
  Py  C   24    0.1084    0.1590   -0.0294    0.1273
  Pz  C   24    0.0075    0.0028    0.0012    0.0077
  S   H   25    0.0102   -0.0293    0.0240   -0.0131
  S   H   26   -0.0589   -0.0243   -0.0035   -0.0340
  S   H   27   -0.0661   -0.0324    0.0004   -0.0374
  S   H   28   -0.0328    0.0061   -0.0201   -0.0219
  S   C   29    0.0073    0.0054   -0.0125   -0.0291
  Px  C   29    0.3073   -0.0720    0.0996    0.2010
  Py  C   29    0.1241    0.0039    0.2089    0.1324
  Pz  C   29    0.0057   -0.0003    0.0069    0.0035
  S   C   30    0.0119    0.0073    0.0067   -0.0255
  Px  C   30    0.1543    0.2539   -0.2247    0.2278
  Py  C   30    0.0712    0.1975    0.0242    0.1137
  Pz  C   30    0.0094    0.0239   -0.0046    0.0149


              NET ATOMIC CHARGES AND DIPOLE CONTRIBUTIONS

  ATOM NO.   TYPE          CHARGE      No. of ELECS.   s-Pop       p-Pop       
    1          C          -0.026199        4.0262     1.09663     2.92956
    2          C          -0.030938        4.0309     1.10193     2.92901
    3          C           0.003615        3.9964     1.07802     2.91836
    4          C           0.006281        3.9937     1.07650     2.91722
    5          C          -0.021356        4.0214     1.10054     2.92082
    6          C          -0.014249        4.0142     1.08660     2.92765
    7          C          -0.024962        4.0250     1.08829     2.93667
    8          C          -0.031140        4.0311     1.09305     2.93809
    9          C           0.013977        3.9860     1.06322     2.92281
   10          C           0.011620        3.9884     1.06075     2.92763
   11          C          -0.037836        4.0378     1.10207     2.93577
   12          H           0.011909        0.9881     0.98809
   13          C          -0.040606        4.0406     1.09546     2.94515
   14          H           0.023618        0.9764     0.97638
   15          H           0.020042        0.9800     0.97996
   16          H           0.027092        0.9729     0.97291
   17          H           0.014209        0.9858     0.98579
   18          H           0.022807        0.9772     0.97719
   19          H           0.025884        0.9741     0.97412
   20          H           0.013041        0.9870     0.98696
   21          C          -0.025639        4.0256     1.10168     2.92396
   22          C          -0.025241        4.0252     1.10419     2.92105
   23          C          -0.024940        4.0249     1.10138     2.92356
   24          C          -0.030695        4.0307     1.09879     2.93190
   25          H           0.034055        0.9659     0.96594
   26          H           0.016072        0.9839     0.98393
   27          H           0.024955        0.9750     0.97504
   28          H           0.028048        0.9720     0.97195
   29          C           0.014288        3.9857     1.06088     2.92484
   30          C           0.022287        3.9777     1.05399     2.92372
 DIPOLE           X         Y         Z       TOTAL
 POINT-CHG.     0.085    -0.034    -0.041     0.101
 HYBRID         0.052    -0.088    -0.176     0.203
 SUM            0.137    -0.122    -0.217     0.284


          ATOMIC ORBITAL ELECTRON POPULATIONS

     Atom    s        px        py        pz   
    1  C   1.09663   0.97854   0.94657   1.00445
    2  C   1.10193   0.97147   0.95527   1.00228
    3  C   1.07802   0.97177   0.96648   0.98011
    4  C   1.07650   0.96661   0.96994   0.98067
    5  C   1.10054   0.97137   0.94203   1.00741
    6  C   1.08660   0.93943   0.98796   1.00026
    7  C   1.08829   0.97272   0.95207   1.01189
    8  C   1.09305   0.96383   0.95520   1.01906
    9  C   1.06322   0.96869   0.97619   0.97793
   10  C   1.06075   0.97334   0.97137   0.98292
   11  C   1.10207   0.96587   0.95226   1.01763
   12  H   0.98809
   13  C   1.09546   0.95503   0.96182   1.02830
   14  H   0.97638
   15  H   0.97996
   16  H   0.97291
   17  H   0.98579
   18  H   0.97719
   19  H   0.97412
   20  H   0.98696
   21  C   1.10168   0.97896   0.94608   0.99893
   22  C   1.10419   0.93566   0.98456   1.00083
   23  C   1.10138   0.97946   0.95517   0.98893
   24  C   1.09879   0.97630   0.95041   1.00519
   25  H   0.96594
   26  H   0.98393
   27  H   0.97504
   28  H   0.97195
   29  C   1.06088   0.96688   0.97479   0.98317
   30  C   1.05399   0.96834   0.97383   0.98156

 **********************
 *                    *
 * JOB ENDED NORMALLY *
 *                    *
 **********************



 TOTAL JOB TIME:             1.48 SECONDS

 == MOPAC DONE ==


          MOPAC Job: "./tetraceneTraj/tetracene_370.mop" ended normally on Feb 15, 2023, at 11:23.

rm: cannot remove ./tetraceneTraj/tetracene_370.cim: No such file or directory
rm: cannot remove ./tetraceneTraj/tetracene_370.end: No such file or directory
rm: cannot remove ./tetraceneTraj/tetracene_370.log: No such file or directory
rm: cannot remove ./tetraceneTraj/tetracene_370.temp: No such file or directory
rm: cannot remove ./tetraceneTraj/tetracene_370.ple: No such file or directory
rm: cannot remove ./tetraceneTraj/tetracene_370.sts: No such file or directory
