 *******************************************************************************
 ** Site#:    0         For non-commercial use only    Version 20.173L 64BITS **
 *******************************************************************************
 ** Cite this program as: MOPAC2016, Version: 20.173L, James J. P. Stewart,   **
 ** Stewart Computational Chemistry, web-site: HTTP://OpenMOPAC.net.          **
 *******************************************************************************
 **                                                                           **
 **                                MOPAC2016                                  **
 **                                                                           **
 *******************************************************************************

                              INDO CALCULATION RESULTS

 *******************************************************************************
 *  CALCULATION DONE:                                Wed Feb 15 11:22:55 2023  *
 *  INDO       - The INDO Hamiltonian to be used
 *
 *
 *
 *                 CHARGE ON SYSTEM = 0
 *
 *
 *
 *  C.I.=(N,M) - 3 DOUBLY FILLED LEVELS USED IN A C.I. INVOLVING 6 M.O.'S
 *  T=         - A TIME OF 172800.0 SECONDS REQUESTED
 *  DUMP=N     - RESTART FILE WRITTEN EVERY 7200.0 SECONDS REQUESTED
 *  RELSCF     - DEFAULT SCF CRITERION MULTIPLIED BY 0.0000
 *              (DEFAULT SCF CRITERION = 0.00010)
 *  ALLVEC     - PRINT ALL EIGENVECTORS
 **********
 *  WARNING: Specified print options may not behave as expected with INDO
 **********
 *******************************************************************************
INDO C.I.=(6,3) AllVEC CHARGE=0 RELSCF=0.000001


   ATOM   CHEMICAL          X               Y               Z
  NUMBER   SYMBOL      (ANGSTROMS)     (ANGSTROMS)     (ANGSTROMS)
 
     1       C         18.57144883  *  19.46852091  *  22.36371481  *
     2       C         19.94246456  *  19.40381553  *  22.43963305  *
     3       C         20.74946568  *  20.66104541  *  22.48188552  *
     4       C         19.98556304  *  21.98378859  *  22.46288812  *
     5       C         18.48934648  *  21.93972715  *  22.42478823  *
     6       C         17.79861867  *  20.72738493  *  22.42064662  *
     7       C         22.13135521  *  20.62976402  *  22.46218187  *
     8       C         20.67837744  *  23.16912196  *  22.50285460  *
     9       C         22.14006202  *  23.13066631  *  22.49297759  *
    10       C         22.86146534  *  21.86538797  *  22.43543237  *
    11       C         24.26214539  *  21.88432206  *  22.51369280  *
    12       H         24.81676666  *  20.92601271  *  22.52211272  *
    13       C         22.90178943  *  24.31362284  *  22.54049233  *
    14       H         22.73761083  *  19.70441581  *  22.38863804  *
    15       H         17.99621535  *  18.55591495  *  22.35159223  *
    16       H         20.52209310  *  18.46639025  *  22.44092286  *
    17       H         17.92078400  *  22.87865541  *  22.47593946  *
    18       H         16.70951797  *  20.80846308  *  22.37847800  *
    19       H         20.20891442  *  24.17090320  *  22.47506114  *
    20       H         22.35917283  *  25.25471952  *  22.61306362  *
    21       C         26.47539923  *  23.03053856  *  22.56155149  *
    22       C         27.16504188  *  24.25581559  *  22.57210691  *
    23       C         26.46887445  *  25.52929748  *  22.64663694  *
    24       C         25.06696352  *  25.55442156  *  22.61170715  *
    25       H         27.01273702  *  22.10492567  *  22.42236275  *
    26       H         28.23733764  *  24.23491628  *  22.47089319  *
    27       H         26.98213858  *  26.48188871  *  22.64982227  *
    28       H         24.53692149  *  26.52714330  *  22.66310390  *
    29       C         25.00403088  *  23.08109481  *  22.51467715  *
    30       C         24.30421064  *  24.36205985  *  22.56456090  *
 


          CARTESIAN COORDINATES 

    NO.       ATOM           X           Y           Z

     1         C         18.5714     19.4685     22.3637
     2         C         19.9425     19.4038     22.4396
     3         C         20.7495     20.6610     22.4819
     4         C         19.9856     21.9838     22.4629
     5         C         18.4893     21.9397     22.4248
     6         C         17.7986     20.7274     22.4206
     7         C         22.1314     20.6298     22.4622
     8         C         20.6784     23.1691     22.5029
     9         C         22.1401     23.1307     22.4930
    10         C         22.8615     21.8654     22.4354
    11         C         24.2621     21.8843     22.5137
    12         H         24.8168     20.9260     22.5221
    13         C         22.9018     24.3136     22.5405
    14         H         22.7376     19.7044     22.3886
    15         H         17.9962     18.5559     22.3516
    16         H         20.5221     18.4664     22.4409
    17         H         17.9208     22.8787     22.4759
    18         H         16.7095     20.8085     22.3785
    19         H         20.2089     24.1709     22.4751
    20         H         22.3592     25.2547     22.6131
    21         C         26.4754     23.0305     22.5616
    22         C         27.1650     24.2558     22.5721
    23         C         26.4689     25.5293     22.6466
    24         C         25.0670     25.5544     22.6117
    25         H         27.0127     22.1049     22.4224
    26         H         28.2373     24.2349     22.4709
    27         H         26.9821     26.4819     22.6498
    28         H         24.5369     26.5271     22.6631
    29         C         25.0040     23.0811     22.5147
    30         C         24.3042     24.3621     22.5646

           Empirical Formula: C18 H12  =    30 atoms



      MOLECULAR POINT GROUP   :   C2h 


      RHF CALCULATION, NO. OF DOUBLY OCCUPIED LEVELS = 42

 WARNING: INDO only performs single-point calculations
  SCF CRITERION =    0.1000E-09

 Summary of symmetry occupancy in each shell:

 SHELL     
    1   42
    v   42
 TOTAL  84




    ROOT NO.    1           2           3           4           5           6

           -44.76628   -42.61624   -40.18900   -36.94613   -35.87628   -34.15450
  
  
  S  C   1   0.07083     0.20694     0.29031     0.26825    -0.07060    -0.11396
 PX  C   1   0.01943     0.04763     0.04770     0.01018    -0.04238    -0.08766
 PY  C   1   0.02403     0.06595     0.08329     0.06177     0.01702     0.04774
 PZ  C   1   0.00218     0.00630     0.00850     0.00695    -0.00192    -0.00337
  
  S  C   2   0.09552     0.23204     0.24834     0.12844    -0.16429    -0.28069
 PX  C   2   0.00227    -0.02087    -0.07140    -0.11234    -0.03049    -0.03764
 PY  C   2   0.03774     0.08210     0.06899     0.00648    -0.01564    -0.01761
 PZ  C   2  -0.00035    -0.00143    -0.00272    -0.00354     0.00069     0.00142
  
  S  C   3   0.20310     0.32761     0.12195    -0.16794    -0.15523    -0.21738
 PX  C   3   0.02356    -0.02591    -0.12857    -0.14258    -0.07406    -0.06072
 PY  C   3   0.04862     0.04110    -0.05149    -0.09957     0.08907     0.12778
 PZ  C   3  -0.00246    -0.00513    -0.00370     0.00035     0.00356     0.00485
  
  S  C   4   0.19951     0.32407     0.12554    -0.15515     0.18487     0.20997
 PX  C   4   0.05436     0.02479    -0.10702    -0.16123    -0.01452    -0.07346
 PY  C   4  -0.00665    -0.04499    -0.08181    -0.06530     0.11410     0.11750
 PZ  C   4   0.00100     0.00035    -0.00232    -0.00374     0.00184     0.00107
  
  S  C   5   0.09231     0.22641     0.24781     0.14315     0.14959     0.27851
 PX  C   5   0.03221     0.05712     0.02076    -0.05191     0.03607     0.02525
 PY  C   5  -0.01776    -0.06020    -0.09573    -0.09775     0.02755     0.01719
 PZ  C   5   0.00113     0.00231     0.00153    -0.00086     0.00290     0.00428
  
  S  C   6   0.06772     0.19946     0.28329     0.26969     0.04192     0.13121
 PX  C   6   0.03045     0.08190     0.09957     0.06516     0.00202     0.00557
 PY  C   6   0.00387     0.00682     0.00045    -0.01499     0.04520     0.09254
 PZ  C   6  -0.00030    -0.00118    -0.00230    -0.00331     0.00041    -0.00002
  
  S  C   7   0.21482     0.20725    -0.09832    -0.24189    -0.29474    -0.20643
 PX  C   7  -0.01555    -0.07369    -0.05506     0.07306    -0.02964     0.07547
 PY  C   7   0.07864     0.04567    -0.07394    -0.06860    -0.00689     0.04003
 PZ  C   7  -0.00017    -0.00115    -0.00053     0.00130     0.00306     0.00219
  
  S  C   8   0.20709     0.20322    -0.08659    -0.22244     0.32153     0.20732
 PX  C   8   0.05536    -0.00014    -0.08678    -0.01864     0.01965    -0.06716
 PY  C   8  -0.05511    -0.08784    -0.00804     0.09950     0.00449    -0.04089
 PZ  C   8  -0.00241    -0.00354     0.00018     0.00414    -0.00327    -0.00384
  
  S  C   9   0.34046     0.09728    -0.26237    -0.01486     0.22679     0.02289
 PX  C   9   0.05332    -0.08413    -0.04724     0.18577    -0.08236    -0.06227
 PY  C   9  -0.03927    -0.06565     0.02590     0.10964     0.13325    -0.02304
 PZ  C   9   0.00049    -0.00203    -0.00030     0.00400     0.00383    -0.00162
  
  S  C  10   0.34478     0.09977    -0.27058    -0.02913    -0.22701    -0.00760
 PX  C  10  -0.00664    -0.09893    -0.00307     0.18456    -0.08687     0.05850
 PY  C  10   0.06199    -0.04035    -0.04772     0.11179     0.13106     0.04590
 PZ  C  10   0.01063     0.00101    -0.00865     0.00290    -0.00463     0.00103
  
  S  C  11   0.27640    -0.07861    -0.15783     0.19714    -0.32124     0.17834
 PX  C  11  -0.05500    -0.04428     0.09206    -0.00385     0.01298     0.08053
 PY  C  11   0.08383    -0.06071    -0.01769     0.10147     0.01873     0.04090
 PZ  C  11  -0.00241    -0.00072     0.00350    -0.00194     0.00510    -0.00060
  
  S  H  12   0.08267    -0.02217    -0.04363     0.04638    -0.16359     0.08927
  
  S  C  13   0.27962    -0.08601    -0.15092     0.22385     0.30627    -0.16700
 PX  C  13   0.04610    -0.07665     0.03270     0.08396    -0.02792    -0.08008
 PY  C  13  -0.08741    -0.00710     0.08610    -0.05392     0.00755    -0.05491
 PZ  C  13  -0.00097    -0.00141     0.00249    -0.00004     0.00217    -0.00426
  
  S  H  14   0.06626     0.05941    -0.03069    -0.06449    -0.15142    -0.09452
  
  S  H  15   0.01872     0.05893     0.09163     0.10045    -0.02996    -0.05232
  
  S  H  16   0.03085     0.07089     0.06965     0.02749    -0.08372    -0.14035
  
  S  H  17   0.02867     0.06807     0.07167     0.03916     0.07701     0.13725
  
  S  H  18   0.01745     0.05513     0.08630     0.09661     0.02066     0.06414
  
  S  H  19   0.06323     0.05709    -0.02631    -0.05473     0.15643     0.09466
  
  S  H  20   0.08629    -0.02510    -0.04272     0.06098     0.16418    -0.08564
  
  S  C  21   0.16948    -0.21621     0.20259    -0.12168    -0.18220     0.29334
 PX  C  21  -0.05620     0.04897    -0.00862    -0.05127     0.03773    -0.02820
 PY  C  21   0.04191    -0.07076     0.09245    -0.08890     0.02193    -0.01297
 PZ  C  21  -0.00226     0.00256    -0.00179     0.00022     0.00576    -0.00891
  
  S  C  22   0.13576    -0.20949     0.25728    -0.25065    -0.06736     0.13875
 PX  C  22  -0.06094     0.08519    -0.08830     0.05644     0.00628    -0.00630
 PY  C  22  -0.00452     0.00163     0.00723    -0.02121     0.05149    -0.09676
 PZ  C  22   0.00008    -0.00025     0.00050    -0.00068     0.00231    -0.00443
  
  S  C  23   0.13669    -0.21141     0.25999    -0.24835     0.05878    -0.10876
 PX  C  23  -0.03828     0.05016    -0.04529     0.01242    -0.04665     0.08758
 PY  C  23  -0.04917     0.07111    -0.07837     0.06062     0.02247    -0.04843
 PZ  C  23  -0.00396     0.00601    -0.00713     0.00635    -0.00011    -0.00007
  
  S  C  24   0.18113    -0.23192     0.21719    -0.11321     0.17767    -0.28490
 PX  C  24   0.00191    -0.03022     0.07251    -0.10958    -0.04358     0.04231
 PY  C  24  -0.07358     0.08262    -0.05777    -0.00019    -0.01831     0.01788
 PZ  C  24  -0.00184     0.00162    -0.00027    -0.00180    -0.00004    -0.00079
  
  S  H  25   0.05125    -0.06273     0.05598    -0.03289    -0.09225     0.14471
  
  S  H  26   0.03554    -0.05910     0.08042    -0.09301    -0.03007     0.06581
  
  S  H  27   0.03544    -0.05904     0.08034    -0.09043     0.02720    -0.05360
  
  S  H  28   0.05393    -0.06658     0.05953    -0.02647     0.09017    -0.14048
  
  S  C  29   0.31666    -0.25324     0.05455     0.15192    -0.17869     0.20006
 PX  C  29  -0.06122    -0.02192     0.12793    -0.15679    -0.03509     0.08513
 PY  C  29   0.03156    -0.06497     0.08362    -0.05269     0.12201    -0.12121
 PZ  C  29   0.00426    -0.00524     0.00431    -0.00086     0.00067    -0.00014
  
  S  C  30   0.32064    -0.26182     0.06440     0.16302     0.17554    -0.21368
 PX  C  30  -0.00387    -0.06668     0.13740    -0.13456    -0.07495     0.04724
 PY  C  30  -0.06558     0.01143     0.06844    -0.09877     0.09416    -0.13218
 PZ  C  30  -0.00275     0.00015     0.00374    -0.00534     0.00208    -0.00371




    ROOT NO.    7           8           9          10          11          12

           -31.92867   -31.23308   -28.97070   -28.09042   -27.02217   -26.18407
  
  
  S  C   1   0.16052     0.25463     0.20217     0.26286    -0.03505     0.18101
 PX  C   1   0.12091    -0.07083     0.09938    -0.16290     0.03731     0.05613
 PY  C   1  -0.07830     0.00826    -0.09675    -0.02546    -0.05475    -0.09677
 PZ  C   1   0.00495     0.00327     0.00517    -0.00021    -0.00121     0.00326
  
  S  C   2   0.30169    -0.02058     0.16254    -0.13468     0.10968     0.01571
 PX  C   2  -0.02280    -0.13467    -0.14258    -0.12743     0.06638    -0.18615
 PY  C   2  -0.00720    -0.07265    -0.06297    -0.09945    -0.06638    -0.08281
 PZ  C   2  -0.00319    -0.00515    -0.00640    -0.00543    -0.00013    -0.00803
  
  S  C   3   0.10105    -0.23432    -0.12423    -0.14359    -0.08406    -0.17960
 PX  C   3  -0.06250     0.02444    -0.14231     0.15120     0.05704    -0.07742
 PY  C   3  -0.09332    -0.01285     0.02655     0.10128    -0.17690     0.10242
 PZ  C   3  -0.00244     0.00223     0.00176     0.00241    -0.00100     0.00177
  
  S  C   4  -0.06053    -0.25856     0.13352    -0.13083    -0.08495     0.19158
 PX  C   4   0.10553     0.01320     0.04463     0.16679    -0.11468    -0.06358
 PY  C   4  -0.00510     0.01661     0.11615     0.09169     0.14173     0.10258
 PZ  C   4   0.00155    -0.00147     0.00302     0.00247    -0.00116     0.00090
  
  S  C   5  -0.29528    -0.06164    -0.16703    -0.16316     0.10334    -0.02208
 PX  C   5   0.04698    -0.13214     0.14339    -0.12633    -0.02827     0.19290
 PY  C   5   0.02622    -0.07789     0.07823    -0.04444     0.08582     0.10241
 PZ  C   5  -0.00276    -0.00497     0.00123    -0.00628     0.00282     0.00431
  
  S  C   6  -0.20687     0.23092    -0.20970     0.22529    -0.02844    -0.19160
 PX  C   6   0.00815    -0.01565     0.03844    -0.07831    -0.03329     0.06935
 PY  C   6  -0.12956    -0.07798    -0.13927    -0.14707     0.06072    -0.11130
 PZ  C   6   0.00104    -0.00613     0.00176    -0.00917     0.00182     0.00256
  
  S  C   7  -0.14856    -0.01692    -0.24087     0.11053     0.15916    -0.01265
 PX  C   7  -0.12680     0.13434     0.06780     0.03931     0.11984     0.20604
 PY  C   7  -0.07512     0.07606     0.02618     0.10052    -0.14861     0.10139
 PZ  C   7   0.00188    -0.00022     0.00271    -0.00163    -0.00645    -0.00219
  
  S  C   8   0.14062    -0.01326     0.22372     0.13426     0.17132     0.01280
 PX  C   8   0.10527     0.15690    -0.05860     0.09833    -0.05404    -0.19813
 PY  C   8   0.05649     0.09171    -0.04286    -0.02244     0.18132    -0.10494
 PZ  C   8   0.00024     0.00225    -0.00426    -0.00170     0.00036    -0.00354
  
  S  C   9   0.18504     0.26570    -0.00631     0.01788    -0.07882    -0.18473
 PX  C   9  -0.06308     0.03334    -0.08938    -0.18955    -0.11820     0.05957
 PY  C   9   0.12988    -0.00045    -0.06154    -0.09154     0.23137    -0.09883
 PZ  C   9   0.00357    -0.00004    -0.00324    -0.00318     0.00851    -0.00247
  
  S  C  10  -0.21795     0.22680     0.01652     0.01750    -0.08495     0.17448
 PX  C  10  -0.06411    -0.01025     0.11958    -0.16765     0.13770     0.07546
 PY  C  10   0.12452     0.04469     0.06159    -0.11060    -0.21488    -0.11683
 PZ  C  10  -0.00491     0.00661     0.00263    -0.00317    -0.00548     0.00376
  
  S  C  11  -0.14131    -0.01216     0.24736    -0.09989     0.19382    -0.00309
 PX  C  11   0.12412    -0.15586     0.03920     0.07906     0.07971    -0.20198
 PY  C  11   0.07410    -0.07280     0.02808    -0.05415    -0.18623    -0.12098
 PZ  C  11   0.00541    -0.00489    -0.00231     0.00421    -0.00421    -0.00722
  
  S  H  12  -0.06758    -0.01467     0.11242     0.00290     0.22791     0.00151
  
  S  C  13   0.15565     0.04514    -0.23506    -0.11866     0.18336     0.02534
 PX  C  13  -0.10656    -0.16134    -0.04465    -0.00382    -0.13168     0.19605
 PY  C  13  -0.05526    -0.10011    -0.03920     0.09325     0.16428     0.11815
 PZ  C  13  -0.00210    -0.00517    -0.00384     0.00346     0.00883     0.00636
  
  S  H  14  -0.07515    -0.00389    -0.10389     0.01778     0.20398     0.01117
  
  S  H  15   0.08044     0.14312     0.11848     0.19609    -0.00234     0.12454
  
  S  H  16   0.14159    -0.01506     0.06423    -0.05658     0.11634    -0.00917
  
  S  H  17  -0.14372    -0.02940    -0.08463    -0.06556     0.10984    -0.01852
  
  S  H  18  -0.11110     0.11969    -0.13288     0.15266     0.00801    -0.14523
  
  S  H  19   0.07164     0.00225     0.09612     0.02940     0.20746    -0.00038
  
  S  H  20   0.07803     0.01823    -0.11758    -0.00873     0.22889     0.01540
  
  S  C  21   0.27396    -0.03686    -0.18243     0.14408     0.11689     0.02776
 PX  C  21   0.02078     0.14703    -0.12871    -0.11606     0.03204     0.20350
 PY  C  21   0.01567     0.07552    -0.07503    -0.03503    -0.11303     0.09924
 PZ  C  21  -0.00797     0.00328     0.00420    -0.00532    -0.00931     0.00066
  
  S  C  22   0.15307     0.28097    -0.19487    -0.22321    -0.02789     0.21148
 PX  C  22   0.00542     0.03108    -0.03189    -0.09096     0.04649     0.07913
 PY  C  22  -0.12578     0.08200     0.14677    -0.13790    -0.05396    -0.10982
 PZ  C  22  -0.00582     0.00123     0.00747    -0.00190    -0.00401    -0.00781
  
  S  C  23  -0.17031     0.27267     0.21652    -0.23639    -0.00472    -0.18834
 PX  C  23   0.09875     0.08822    -0.09531    -0.15633    -0.02894     0.07727
 PY  C  23  -0.06629    -0.02265     0.09990    -0.00864     0.08073    -0.10710
 PZ  C  23   0.00020    -0.00554     0.00060     0.00408     0.00308    -0.00187
  
  S  C  24  -0.26743    -0.05329     0.16410     0.13775     0.12301    -0.02872
 PX  C  24  -0.03272     0.14335     0.14324    -0.10262    -0.06375    -0.19730
 PY  C  24  -0.01721     0.08742     0.07616    -0.08712     0.10297    -0.09381
 PZ  C  24  -0.00311     0.00409     0.00648    -0.00244     0.00498    -0.00736
  
  S  H  25   0.13307    -0.01450    -0.08921     0.05816     0.13382     0.02414
  
  S  H  26   0.08047     0.15562    -0.11880    -0.16390     0.01386     0.15870
  
  S  H  27  -0.09043     0.14735     0.13362    -0.16701     0.03165    -0.13214
  
  S  H  28  -0.12707    -0.02075     0.07647     0.05217     0.13995    -0.00696
  
  S  C  29   0.09296    -0.25833     0.10271     0.10095    -0.09785    -0.19667
 PX  C  29   0.09716    -0.00819    -0.06222     0.16715     0.11383    -0.05333
 PY  C  29  -0.00940    -0.02979    -0.12216     0.06876    -0.18601     0.10981
 PZ  C  29   0.00113    -0.00584    -0.00028     0.00602    -0.00532    -0.00370
  
  S  C  30  -0.06525    -0.25231    -0.11520     0.10252    -0.10167     0.17536
 PX  C  30  -0.05488    -0.04657     0.12359     0.15339    -0.09080    -0.08977
 PY  C  30  -0.09359     0.00656    -0.01834     0.10642     0.19349     0.10891
 PZ  C  30  -0.00407     0.00002     0.00212     0.00594     0.00819     0.00054




    ROOT NO.   13          14          15          16          17          18

           -25.11220   -23.83215   -22.84176   -21.57379   -20.62067   -19.17424
  
  
  S  C   1  -0.00419     0.12250     0.00007    -0.16631    -0.03444     0.00411
 PX  C   1   0.03334    -0.23899     0.00843     0.03628     0.22091     0.20687
 PY  C   1  -0.14890     0.00529     0.20788     0.12483    -0.15285     0.17671
 PZ  C   1  -0.00328    -0.00461     0.00588     0.00239     0.00149     0.00955
  
  S  C   2   0.16316    -0.19414    -0.11378     0.13098     0.11520     0.03411
 PX  C   2   0.07677     0.02667    -0.06973     0.16045    -0.14231    -0.17470
 PY  C   2  -0.17763     0.01339     0.21007     0.07588    -0.15540     0.06138
 PZ  C   2  -0.00229     0.00232     0.00199     0.00947    -0.00988    -0.01019
  
  S  C   3  -0.13513     0.10023     0.01796     0.08791    -0.05389    -0.15390
 PX  C   3   0.15122     0.14544    -0.16322    -0.12982    -0.01856    -0.00460
 PY  C   3  -0.19302     0.08307     0.01666    -0.10940     0.16723    -0.05791
 PZ  C   3   0.00023     0.00181    -0.00358     0.00208     0.00160    -0.01029
  
  S  C   4  -0.11620     0.08845     0.01755    -0.09161    -0.03463    -0.16424
 PX  C   4  -0.08374     0.14288    -0.08421     0.18825     0.11042    -0.05383
 PY  C   4   0.24573     0.07248    -0.16037     0.00904    -0.09770     0.01791
 PZ  C   4  -0.00029     0.00519    -0.00431     0.00581     0.00308    -0.00953
  
  S  C   5   0.14580    -0.18648    -0.08981    -0.14072     0.12557     0.03875
 PX  C   5  -0.09785     0.02009     0.14798    -0.16836    -0.17980    -0.04424
 PY  C   5   0.16536     0.00410    -0.16959    -0.12879     0.00690    -0.17564
 PZ  C   5   0.00418    -0.00380    -0.00386    -0.00613     0.00310    -0.00594
  
  S  C   6  -0.01856     0.13388    -0.00573     0.17388    -0.07765    -0.00866
 PX  C   6  -0.10902    -0.09926     0.19072    -0.11515    -0.01827     0.25468
 PY  C   6   0.09022    -0.19757    -0.09082     0.06600     0.24256     0.08993
 PZ  C   6   0.00171    -0.00974    -0.00056    -0.00298     0.00925     0.00434
  
  S  C   7   0.13650     0.11831     0.05774    -0.21178    -0.07735     0.14009
 PX  C   7   0.04082    -0.12365     0.17564    -0.05643     0.01958     0.15822
 PY  C   7  -0.11880    -0.08422    -0.02771    -0.01592     0.22637     0.01897
 PZ  C   7  -0.00434     0.00039    -0.00635     0.00738     0.00392    -0.01535
  
  S  C   8   0.15892     0.10423     0.03168     0.20143    -0.10865     0.14643
 PX  C   8  -0.09564    -0.12308     0.07671     0.08579     0.18313     0.10179
 PY  C   8   0.09151    -0.06011     0.16165     0.04114    -0.11847     0.14705
 PZ  C   8  -0.00352    -0.00112     0.00363    -0.00053     0.00443    -0.00573
  
  S  C   9  -0.01356    -0.22319     0.00018    -0.00037     0.00711     0.01029
 PX  C   9  -0.00997    -0.06765    -0.09221    -0.18592    -0.14286    -0.16949
 PY  C   9   0.02169     0.08308     0.20330    -0.08743    -0.07851    -0.08891
 PZ  C   9  -0.00154     0.00569     0.00886    -0.00353     0.00250    -0.00981
  
  S  C  10  -0.00277    -0.22391    -0.00838     0.00487     0.01038     0.00439
 PX  C  10   0.02201     0.03454     0.10510     0.16948    -0.16501    -0.16779
 PY  C  10  -0.02287    -0.10100    -0.18980     0.07844    -0.09965    -0.09572
 PZ  C  10  -0.00136    -0.00490    -0.00187     0.00484     0.00073    -0.01163
  
  S  C  11  -0.10481     0.09991     0.04986     0.21687     0.06428    -0.14629
 PX  C  11  -0.08957     0.16574    -0.05792    -0.05351     0.18524     0.08347
 PY  C  11   0.05166     0.06396    -0.16575    -0.06159    -0.10618     0.12326
 PZ  C  11   0.00042     0.00514    -0.00203    -0.00553     0.00955     0.00178
  
  S  H  12  -0.11123     0.06833     0.09885     0.11917     0.15435    -0.11821
  
  S  C  13  -0.11169     0.10465     0.06846    -0.19752     0.09250    -0.14607
 PX  C  13   0.01440     0.13952    -0.18920     0.06239    -0.00616     0.15445
 PY  C  13  -0.09915     0.10837     0.03045     0.03908     0.21416    -0.00305
 PZ  C  13  -0.00644     0.00789     0.00198     0.00002     0.01438    -0.00432
  
  S  H  14   0.14603     0.06416     0.10791    -0.11186    -0.15808     0.11887
  
  S  H  15   0.06509     0.14406    -0.12025    -0.17405    -0.01066    -0.19617
  
  S  H  16   0.20824    -0.09638    -0.19809     0.07591     0.09514    -0.08155
  
  S  H  17   0.19899    -0.09996    -0.19167    -0.08488     0.13143    -0.06962
  
  S  H  18   0.06238     0.12439    -0.13385     0.17526    -0.01638    -0.19148
  
  S  H  19   0.15757     0.05406     0.09187     0.09652    -0.17725     0.13676
  
  S  H  20  -0.11628     0.06977     0.11332    -0.09103     0.17164    -0.12966
  
  S  C  21  -0.16440    -0.18582    -0.10468    -0.14054    -0.10363    -0.01423
 PX  C  21  -0.08809    -0.03477    -0.14145     0.13395    -0.20129    -0.01250
 PY  C  21   0.16330    -0.03341     0.15864     0.09404    -0.01701    -0.16500
 PZ  C  21   0.01474     0.00543     0.01549     0.00715     0.00817    -0.01569
  
  S  C  22   0.02739     0.12408    -0.00249     0.16991     0.03957    -0.01694
 PX  C  22  -0.09786     0.12978    -0.17523     0.11909    -0.01864     0.23808
 PY  C  22   0.09702     0.20956     0.09760    -0.02112     0.23797     0.04248
 PZ  C  22   0.00816     0.00268     0.01282    -0.00727     0.01108    -0.01652
  
  S  C  23   0.00425     0.13754     0.00321    -0.15725     0.05733     0.00551
 PX  C  23   0.03500     0.24178    -0.00970     0.00988     0.19619     0.16512
 PY  C  23  -0.14800     0.00623    -0.19444    -0.13683    -0.12615     0.19519
 PZ  C  23  -0.00514    -0.00319    -0.00532    -0.00453    -0.00491     0.00062
  
  S  C  24  -0.15989    -0.18868    -0.10803     0.11023    -0.12062    -0.03052
 PX  C  24   0.07770    -0.03194     0.07766    -0.17755    -0.09768    -0.13580
 PY  C  24  -0.17724    -0.00081    -0.19514    -0.09173    -0.13642     0.06129
 PZ  C  24  -0.00792    -0.00366    -0.00672    -0.00575    -0.00766    -0.00470
  
  S  H  25  -0.20427    -0.08957    -0.19023    -0.07970    -0.11264     0.08978
  
  S  H  26  -0.04781     0.14564    -0.11919     0.17312     0.00407     0.17114
  
  S  H  27  -0.06850     0.14955    -0.11484    -0.16396     0.01849     0.19167
  
  S  H  28  -0.20499    -0.08549    -0.19037     0.05446    -0.10943     0.06663
  
  S  C  29   0.10281     0.10771     0.01450    -0.08860     0.05021     0.14729
 PX  C  29  -0.07261    -0.15011     0.08985    -0.14946     0.12555    -0.07691
 PY  C  29   0.22247    -0.08284     0.13331    -0.02374    -0.08748     0.04299
 PZ  C  29   0.00791     0.00051     0.00850    -0.00383     0.00759    -0.00322
  
  S  C  30   0.10475     0.09592    -0.00456     0.09165     0.03464     0.14778
 PX  C  30   0.14769    -0.15871     0.15274     0.10524    -0.03084    -0.00734
 PY  C  30  -0.17811    -0.09652    -0.01542     0.14045     0.12453    -0.08958
 PZ  C  30  -0.00666    -0.00504     0.00250     0.00515     0.00796    -0.00913




    ROOT NO.   19          20          21          22          23          24

           -18.49060   -17.29373   -17.01259   -16.69669   -15.83303   -15.44965
  
  
  S  C   1  -0.14626    -0.01763     0.06922    -0.06806    -0.05645     0.06275
 PX  C   1   0.09742    -0.16503     0.03104     0.06282    -0.17288     0.16957
 PY  C   1   0.10665     0.20856    -0.01018     0.04593    -0.14905     0.02575
 PZ  C   1   0.00583     0.00144     0.00350     0.00223    -0.00826     0.00889
  
  S  C   2   0.15776     0.03794    -0.02230     0.05972     0.00483     0.01622
 PX  C   2   0.07437     0.20628    -0.07466    -0.00120     0.19304    -0.17341
 PY  C   2  -0.04927     0.04392     0.21390    -0.13479     0.02798     0.34712
 PZ  C   2   0.00466     0.01100     0.00316    -0.00321     0.01341    -0.00460
  
  S  C   3  -0.06467    -0.08265     0.19603    -0.09514     0.07635     0.03583
 PX  C   3  -0.17391     0.03955     0.06225    -0.01509    -0.22808    -0.19463
 PY  C   3  -0.01057    -0.25586    -0.07601     0.05956     0.02424    -0.11605
 PZ  C   3   0.00136    -0.00561     0.00476    -0.00227    -0.00011    -0.00689
  
  S  C   4   0.07754    -0.03144    -0.19579     0.08352     0.08335    -0.02004
 PX  C   4   0.15057    -0.20239     0.02362     0.00075    -0.11674     0.16551
 PY  C   4   0.08825     0.19033    -0.06496     0.03853    -0.21453     0.07912
 PZ  C   4   0.00746    -0.01410     0.00299    -0.00008    -0.00507     0.01067
  
  S  C   5  -0.17481    -0.00745     0.01500    -0.06432    -0.00375    -0.05332
 PX  C   5  -0.03291     0.19363    -0.13544     0.06934     0.15087    -0.16267
 PY  C   5  -0.12273     0.02072     0.16218    -0.12344     0.14833     0.28540
 PZ  C   5  -0.00498    -0.00520     0.00602    -0.00464     0.00514     0.01145
  
  S  C   6   0.15813     0.06008    -0.06706     0.07792    -0.03761    -0.05892
 PX  C   6  -0.17156     0.08297     0.00189    -0.05002    -0.23754    -0.18115
 PY  C   6   0.03287    -0.21413    -0.03508     0.03474    -0.08399    -0.08763
 PZ  C   6  -0.00298    -0.00945     0.00322    -0.00185    -0.00308     0.00411
  
  S  C   7  -0.08306    -0.03479    -0.05943     0.04618    -0.07305     0.00521
 PX  C   7   0.17585    -0.03124    -0.20300     0.09291     0.15721     0.16646
 PY  C   7   0.08591    -0.03085     0.28534     0.04959     0.07900    -0.19859
 PZ  C   7  -0.00277    -0.00443     0.02019    -0.00671    -0.00767    -0.01613
  
  S  C   8   0.08730    -0.01460     0.06764    -0.01774    -0.08554     0.01177
 PX  C   8  -0.14017    -0.10651    -0.16214    -0.09164     0.10569     0.01802
 PY  C   8  -0.09684    -0.01580     0.31988    -0.04966     0.12611    -0.16964
 PZ  C   8  -0.00147    -0.01406     0.00180     0.00140     0.00002     0.00027
  
  S  C   9  -0.14099     0.09583    -0.18530    -0.09874     0.06004     0.07381
 PX  C   9   0.01940     0.13677     0.04265     0.04815    -0.03520     0.00424
 PY  C   9  -0.04702    -0.24361    -0.09545    -0.00525     0.09597    -0.00850
 PZ  C   9   0.00044    -0.02391     0.00013     0.00677    -0.00587    -0.00344
  
  S  C  10   0.11135     0.13848     0.17849     0.06543     0.09677    -0.04235
 PX  C  10   0.05656    -0.14182     0.04797    -0.02123     0.04735     0.02281
 PY  C  10  -0.09844     0.21398    -0.05323    -0.07290    -0.10658     0.07252
 PZ  C  10   0.00104    -0.00692     0.01016     0.00004    -0.01123    -0.00621
  
  S  C  11  -0.09274    -0.05568     0.00875    -0.05358    -0.09187    -0.03928
 PX  C  11  -0.17358     0.05483    -0.14493    -0.04234    -0.13467    -0.01266
 PY  C  11  -0.08550     0.02773     0.10960     0.24439    -0.05174    -0.05781
 PZ  C  11  -0.00733    -0.00226    -0.00472     0.00290    -0.01915     0.00067
  
  S  H  12  -0.05128    -0.02744    -0.15114    -0.23712    -0.07174     0.02434
  
  S  C  13   0.10318    -0.02690    -0.00076     0.05663    -0.07989     0.00253
 PX  C  13   0.15073     0.05518     0.00255    -0.13912    -0.18935     0.08701
 PY  C  13   0.10014     0.07119     0.18954     0.15204    -0.03325    -0.08084
 PZ  C  13   0.00644    -0.00314     0.01378     0.01826    -0.01472    -0.00490
  
  S  H  14  -0.02178    -0.01409    -0.33711     0.02463    -0.02767     0.21960
  
  S  H  15  -0.18641    -0.08169     0.02761    -0.09520     0.16278    -0.06527
  
  S  H  16   0.14291     0.08003    -0.20979     0.12898     0.06283    -0.32618
  
  S  H  17  -0.15798    -0.06928     0.19308    -0.15252     0.04075     0.26045
  
  S  H  18   0.21839    -0.04680    -0.03406     0.08288     0.18015     0.13041
  
  S  H  19   0.02222     0.01203     0.34626    -0.00762     0.01245    -0.13447
  
  S  H  20   0.05692     0.01196     0.15242     0.21122     0.01280    -0.10002
  
  S  C  21   0.16961     0.02806     0.04310    -0.05342    -0.00191     0.03622
 PX  C  21   0.00983    -0.21700    -0.02054    -0.19110    -0.15403    -0.13252
 PY  C  21  -0.08363    -0.10624     0.03948     0.28223    -0.13983     0.11740
 PZ  C  21  -0.01064    -0.00179     0.00409     0.03111    -0.03136     0.01890
  
  S  C  22  -0.15965     0.00518    -0.01622     0.11998    -0.05220     0.02854
 PX  C  22  -0.16998    -0.07059    -0.07405     0.02709     0.24703    -0.08390
 PY  C  22  -0.02564     0.25624    -0.01624    -0.09055     0.06759     0.00144
 PZ  C  22   0.01067     0.01526     0.00776     0.00286    -0.03581     0.01651
  
  S  C  23   0.16047     0.02592     0.02492    -0.11775    -0.05431    -0.02483
 PX  C  23   0.05347     0.20394     0.03404    -0.02079     0.18585     0.12653
 PY  C  23   0.15624    -0.16907     0.01869    -0.02453     0.17528    -0.00384
 PZ  C  23   0.00646    -0.00535     0.00439     0.00801    -0.01390     0.00884
  
  S  C  24  -0.17213    -0.00481    -0.04153     0.05420     0.00115    -0.01142
 PX  C  24   0.12610    -0.19613    -0.00417    -0.06164    -0.20438    -0.13027
 PY  C  24  -0.02937    -0.09814     0.02707     0.32545    -0.04596     0.14204
 PZ  C  24  -0.00202    -0.00810     0.00359     0.02341    -0.02249     0.00871
  
  S  H  25   0.14815     0.00136    -0.01943    -0.32271     0.03752    -0.12884
  
  S  H  26  -0.21586    -0.05966    -0.07062     0.08257     0.18827    -0.06155
  
  S  H  27   0.21179    -0.02697     0.04142    -0.08397     0.18162     0.03995
  
  S  H  28  -0.15215     0.00479     0.00661     0.30301     0.04896     0.15781
  
  S  C  29  -0.05559    -0.02985     0.02769     0.21693     0.11245     0.01113
 PX  C  29   0.10108     0.23050     0.02634     0.06082     0.11145     0.14073
 PY  C  29   0.13629    -0.17140    -0.02252    -0.09294     0.17413     0.00344
 PZ  C  29  -0.00205    -0.00193     0.00102     0.01487    -0.01625     0.00897
  
  S  C  30   0.06215    -0.03513    -0.04176    -0.20774     0.06005    -0.02449
 PX  C  30  -0.16164    -0.05128    -0.02824    -0.00679     0.24745    -0.09921
 PY  C  30  -0.09288     0.26516    -0.00456    -0.11671    -0.00525     0.00241
 PZ  C  30  -0.00849     0.00758     0.00385     0.01194    -0.01760     0.00250




    ROOT NO.   25          26          27          28          29          30

           -15.04457   -14.68481   -14.63096   -14.61875   -13.65227   -13.39279
  
  
  S  C   1   0.01729     0.03263     0.02474     0.00128     0.04296    -0.00701
 PX  C   1  -0.23965    -0.03388    -0.11181    -0.00852     0.14402    -0.12441
 PY  C   1   0.06957     0.22084    -0.15782    -0.07775     0.04888     0.06932
 PZ  C   1   0.01507     0.01490    -0.05227     0.09027     0.05018     0.19645
  
  S  C   2  -0.01302     0.05800    -0.08699    -0.03016    -0.02539     0.01420
 PX  C   2   0.22150     0.05261     0.06745    -0.01749    -0.17646     0.10322
 PY  C   2  -0.03410     0.10212    -0.00688     0.00031    -0.05375    -0.04158
 PZ  C   2   0.04115     0.01259    -0.05214     0.12207     0.03975     0.22030
  
  S  C   3   0.00749    -0.05992     0.02744     0.01124     0.01952     0.01296
 PX  C   3   0.03956    -0.02571    -0.04200    -0.03319     0.25927    -0.07751
 PY  C   3  -0.10007    -0.15912     0.04048     0.03122     0.01087     0.02344
 PZ  C   3   0.05415     0.00485    -0.09396     0.22274     0.07925     0.25933
  
  S  C   4  -0.06800    -0.02565     0.00701     0.01631     0.01976    -0.02299
 PX  C   4  -0.04374     0.03047     0.09416     0.03264     0.12364     0.08330
 PY  C   4   0.03833     0.18143    -0.05831    -0.03237     0.21203    -0.03111
 PZ  C   4   0.04286     0.01033    -0.08722     0.22486     0.08113     0.26079
  
  S  C   5   0.09232     0.01457     0.06038     0.00286    -0.03464     0.00368
 PX  C   5  -0.01157    -0.03252    -0.11225    -0.03872    -0.11344    -0.09877
 PY  C   5   0.01570     0.21334    -0.12846    -0.05602    -0.12612     0.05234
 PZ  C   5   0.02254     0.00957    -0.05103     0.12089     0.04770     0.20498
  
  S  C   6  -0.01664     0.00249    -0.04597    -0.01073     0.04674     0.00829
 PX  C   6   0.22047     0.04896     0.14259     0.01750     0.10710     0.10901
 PY  C   6  -0.09108    -0.22621     0.15699     0.07220     0.09515    -0.07974
 PZ  C   6   0.01433     0.00049    -0.03391     0.09319     0.04718     0.18699
  
  S  C   7  -0.08465    -0.01413    -0.03117     0.01781     0.00298    -0.01016
 PX  C   7  -0.07769     0.04563    -0.00178     0.03702    -0.25887     0.08093
 PY  C   7   0.04481     0.01230    -0.25749    -0.12239    -0.07945     0.08723
 PZ  C   7   0.06298    -0.00079    -0.10813     0.22416     0.06823     0.14866
  
  S  C   8   0.02208    -0.03852     0.05067     0.02405    -0.00893     0.02906
 PX  C   8   0.17364     0.10128     0.16159     0.03824    -0.22085     0.03667
 PY  C   8  -0.06008    -0.25443    -0.05335    -0.01755    -0.16828    -0.02091
 PZ  C   8   0.04660     0.00765    -0.09113     0.22793     0.04675     0.15410
  
  S  C   9   0.03824    -0.02481    -0.02575    -0.01026    -0.01029    -0.03082
 PX  C   9  -0.17745    -0.13165    -0.18547    -0.04193     0.21599    -0.05574
 PY  C   9  -0.06635    -0.08196    -0.08163    -0.02182     0.12526     0.09160
 PZ  C   9   0.06696     0.00627    -0.13798     0.31114     0.02018     0.03157
  
  S  C  10  -0.01749     0.03763     0.02106    -0.00597    -0.01124    -0.00166
 PX  C  10   0.02206    -0.00128     0.27384     0.11744     0.19673     0.02370
 PY  C  10  -0.00145    -0.02500     0.12778     0.03875     0.10647    -0.13653
 PZ  C  10   0.07753    -0.00296    -0.14426     0.30943     0.02870     0.02628
  
  S  C  11   0.06248     0.01224     0.03646    -0.00006     0.02564    -0.03792
 PX  C  11  -0.01151    -0.01676    -0.24689    -0.13504    -0.18131    -0.03356
 PY  C  11  -0.21970     0.12722     0.21175     0.15162    -0.15137     0.00097
 PZ  C  11   0.06548    -0.01184    -0.14270     0.23773    -0.03580    -0.10694
  
  S  H  12   0.18166    -0.10466    -0.25461    -0.16999     0.04799    -0.03451
  
  S  C  13  -0.02233     0.03755    -0.05853    -0.03813     0.02087     0.03094
 PX  C  13   0.11318    -0.18547    -0.00315    -0.04164    -0.24276     0.08507
 PY  C  13   0.06311     0.28566     0.20069     0.04096    -0.09493    -0.07241
 PZ  C  13   0.05990     0.01977    -0.10224     0.26005    -0.04054    -0.11492
  
  S  H  14  -0.10427     0.00091     0.17688     0.09901    -0.06974    -0.04054
  
  S  H  15   0.06807    -0.13853     0.18954     0.06387    -0.09462    -0.00071
  
  S  H  16   0.11973    -0.02258    -0.00181    -0.02014    -0.05915     0.09173
  
  S  H  17   0.06221     0.18289    -0.02315    -0.02059    -0.06860     0.10173
  
  S  H  18  -0.21236    -0.05157    -0.14730    -0.02150    -0.07463    -0.10951
  
  S  H  19  -0.10451    -0.24789    -0.07514    -0.02156    -0.05797    -0.02039
  
  S  H  20  -0.01422     0.30981     0.12563     0.04952     0.04184    -0.08753
  
  S  C  21   0.03724    -0.06468     0.06720     0.04002     0.02218    -0.01033
 PX  C  21  -0.01248     0.09681     0.05417     0.02552    -0.14075    -0.03172
 PY  C  21   0.30893    -0.07398    -0.00046    -0.11589    -0.01432    -0.08889
 PZ  C  21   0.06707    -0.02909    -0.06996     0.13981    -0.07656    -0.20338
  
  S  C  22   0.00302    -0.03111    -0.02483    -0.01779    -0.04991     0.02005
 PX  C  22  -0.09843     0.18624    -0.16876    -0.02809     0.12580    -0.04575
 PY  C  22  -0.26834    -0.07318     0.03423     0.09397    -0.01271     0.16036
 PZ  C  22   0.03849    -0.04082    -0.03050     0.12248    -0.08522    -0.17870
  
  S  C  23  -0.01458     0.00889     0.03895     0.02494    -0.05209    -0.00106
 PX  C  23   0.11396    -0.20621     0.15098     0.06246     0.12564    -0.02144
 PY  C  23   0.25793     0.08818    -0.01617    -0.07059     0.15785    -0.17490
 PZ  C  23   0.04684    -0.01698    -0.04674     0.11912    -0.06909    -0.19751
  
  S  C  24  -0.10135    -0.00151    -0.03617     0.00718     0.01514     0.01922
 PX  C  24  -0.07819     0.20495    -0.12103    -0.06300    -0.15363     0.03878
 PY  C  24   0.12824    -0.14449    -0.03244    -0.06053    -0.09949     0.16706
 PZ  C  24   0.04403    -0.01379    -0.07673     0.16359    -0.08400    -0.20634
  
  S  H  25  -0.22520     0.06688     0.05864     0.10060    -0.02802     0.07498
  
  S  H  26  -0.08614     0.15829    -0.16484    -0.04711     0.10314    -0.02053
  
  S  H  27   0.24725    -0.01736     0.07471    -0.01591     0.16280    -0.15815
  
  S  H  28   0.08615    -0.19650     0.01096    -0.00937    -0.00407     0.12139
  
  S  C  29  -0.00110     0.07516    -0.00135    -0.01013    -0.00667     0.02119
 PX  C  29   0.05675    -0.14611    -0.02825    -0.02943     0.16836     0.01628
 PY  C  29   0.15952     0.00899    -0.07495    -0.06738     0.15286     0.02985
 PZ  C  29   0.07514    -0.01851    -0.13573     0.25445    -0.07560    -0.23902
  
  S  C  30   0.06277    -0.02039    -0.02567    -0.01378    -0.01284    -0.02271
 PX  C  30  -0.07332     0.16661     0.01880     0.04243     0.23559    -0.10936
 PY  C  30  -0.11964    -0.05077     0.09177     0.05913     0.07333    -0.09133
 PZ  C  30   0.05720    -0.00647    -0.12086     0.27547    -0.07974    -0.25507




    ROOT NO.   31          32          33          34          35          36

           -13.18321   -12.83482   -12.22985   -11.76339   -11.66385   -11.31679
  
  
  S  C   1   0.02839     0.00025     0.01233    -0.01438     0.01479     0.01672
 PX  C   1  -0.07296    -0.16650    -0.06409    -0.03420     0.00605     0.12120
 PY  C   1   0.19012    -0.16544     0.21244    -0.02594     0.08009     0.08389
 PZ  C   1  -0.13473    -0.06314     0.04260     0.29828    -0.13939     0.09221
  
  S  C   2   0.01489    -0.02774    -0.02048    -0.00028    -0.02867    -0.03637
 PX  C   2   0.06992     0.17391     0.01731     0.01255    -0.02112    -0.16242
 PY  C   2  -0.10128     0.13315    -0.23379     0.00697    -0.10770    -0.14882
 PZ  C   2  -0.14462    -0.03732     0.02349     0.23020    -0.11141     0.04919
  
  S  C   3   0.00671     0.04838     0.00621     0.00316     0.00026     0.01078
 PX  C   3   0.03928    -0.17596    -0.10425    -0.05086    -0.05036     0.19871
 PY  C   3   0.05870    -0.09235     0.31496     0.01097     0.17763     0.13543
 PZ  C   3  -0.17622    -0.05044    -0.00018     0.05710    -0.02244     0.01285
  
  S  C   4  -0.00541    -0.02936     0.01955     0.00382     0.00812    -0.00483
 PX  C   4   0.15916     0.19297     0.22206     0.06348     0.08278    -0.15824
 PY  C   4   0.04593     0.05334    -0.23589     0.00106    -0.15659    -0.13333
 PZ  C   4  -0.17079    -0.03866     0.01838     0.06862    -0.02472    -0.01381
  
  S  C   5   0.00258     0.00372    -0.04924    -0.02237    -0.02372     0.02459
 PX  C   5  -0.14463    -0.21673    -0.18250    -0.06089    -0.05794     0.15970
 PY  C   5   0.09547    -0.16343     0.16301    -0.02854     0.06635     0.09383
 PZ  C   5  -0.14421    -0.04717     0.03466     0.22470    -0.10125     0.04982
  
  S  C   6   0.01811    -0.02230     0.02368     0.01637     0.00028     0.00102
 PX  C   6   0.15665     0.16849     0.10978     0.03478     0.02031    -0.09864
 PY  C   6  -0.13026     0.19517    -0.18794     0.02098    -0.06402    -0.11446
 PZ  C   6  -0.13987    -0.04125     0.03275     0.29478    -0.13933     0.07366
  
  S  C   7  -0.01460    -0.07614    -0.00279    -0.02201    -0.03939    -0.02072
 PX  C   7  -0.03367     0.11287     0.09731     0.03400     0.02392    -0.21286
 PY  C   7   0.12638    -0.04749    -0.09479    -0.03379    -0.18834    -0.17231
 PZ  C   7  -0.10173    -0.03255    -0.03755    -0.12613     0.06047    -0.01441
  
  S  C   8   0.00675     0.05831    -0.02804    -0.02543    -0.04593     0.00674
 PX  C   8   0.00348    -0.14986    -0.09932    -0.10667    -0.10053     0.21746
 PY  C   8  -0.11154    -0.03628     0.13277     0.00862     0.13019     0.10432
 PZ  C   8  -0.10174    -0.02502    -0.00777    -0.10236     0.04909    -0.04228
  
  S  C   9  -0.04392    -0.04399    -0.01200    -0.00681     0.00004     0.01027
 PX  C   9  -0.02081     0.11043     0.12703     0.11047     0.12862    -0.21315
 PY  C   9   0.24403    -0.10100     0.03091    -0.07902    -0.27208    -0.12297
 PZ  C   9  -0.00959     0.00349    -0.03526    -0.28014     0.12116    -0.07398
  
  S  C  10  -0.01362     0.06680    -0.01704     0.02033    -0.01493     0.00028
 PX  C  10   0.14496    -0.02765     0.00235    -0.10644    -0.11990     0.24559
 PY  C  10  -0.19362     0.06707     0.04883     0.09192     0.27310     0.15938
 PZ  C  10  -0.02771     0.00563    -0.04546    -0.28936     0.15377    -0.06166
  
  S  C  11  -0.01705    -0.08219     0.01059    -0.02938    -0.02904     0.00849
 PX  C  11  -0.14889    -0.03731     0.01993     0.09833     0.08004    -0.23862
 PY  C  11  -0.02340    -0.12975     0.11480    -0.08460    -0.16959    -0.12830
 PZ  C  11   0.04233     0.03388    -0.01767    -0.13382     0.09608    -0.04969
  
  S  H  12  -0.05687     0.05308    -0.08365     0.11840     0.19941    -0.00285
  
  S  C  13   0.02472     0.07025     0.01228    -0.01779    -0.05467    -0.01460
 PX  C  13  -0.05934     0.09902     0.02243    -0.12119    -0.09800     0.19995
 PY  C  13  -0.16407     0.02716    -0.10178     0.08123     0.19385     0.12630
 PZ  C  13   0.05329     0.04074    -0.01778    -0.12175     0.07396    -0.01004
  
  S  H  14  -0.11810     0.06146     0.14299     0.05212     0.17358     0.02865
  
  S  H  15  -0.10532     0.22574    -0.14218     0.02953    -0.06269    -0.13534
  
  S  H  16   0.12140    -0.03858     0.20908     0.00288     0.07906     0.03158
  
  S  H  17   0.14224    -0.02764     0.21894     0.00704     0.08062     0.01417
  
  S  H  18  -0.14278    -0.16732    -0.10424    -0.03654    -0.01609     0.09659
  
  S  H  19  -0.08902     0.06222     0.15938     0.05374     0.16109     0.00307
  
  S  H  20  -0.08801     0.01072    -0.09354     0.12515     0.22002     0.00236
  
  S  C  21   0.02687    -0.01167     0.01969    -0.01716    -0.03562     0.03838
 PX  C  21  -0.01013    -0.25466    -0.07214     0.10011     0.09861    -0.20766
 PY  C  21  -0.19207    -0.08525     0.11522    -0.05690    -0.05818    -0.08892
 PZ  C  21   0.09685     0.01941     0.04312     0.18742    -0.10512     0.03250
  
  S  C  22   0.00232    -0.01360    -0.00786     0.00599     0.00253    -0.02413
 PX  C  22  -0.03236     0.26694     0.05818    -0.02220    -0.06981     0.14928
 PY  C  22   0.22376     0.05486    -0.14099     0.03013     0.07652     0.08589
 PZ  C  22   0.12210    -0.01327     0.02790     0.27329    -0.13166     0.04616
  
  S  C  23  -0.00433    -0.01701    -0.00382     0.00299    -0.00722     0.01011
 PX  C  23   0.09832    -0.24049    -0.03970     0.06126     0.06592    -0.14212
 PY  C  23  -0.19808    -0.01039     0.14363    -0.04672    -0.06872    -0.04477
 PZ  C  23   0.11150     0.01771     0.04054     0.27492    -0.14688     0.07619
  
  S  C  24   0.02392     0.01777     0.02887    -0.01704    -0.03527    -0.02558
 PX  C  24  -0.09275     0.22737     0.00185    -0.05564    -0.03349     0.15828
 PY  C  24   0.15471     0.03143    -0.20269     0.05468     0.14252     0.09499
 PZ  C  24   0.13517     0.05014     0.02267     0.21224    -0.10693     0.08522
  
  S  H  25   0.15530    -0.05585    -0.13401     0.07411     0.10623    -0.00928
  
  S  H  26  -0.04462     0.25545     0.05281    -0.04445    -0.05617     0.13874
  
  S  H  27  -0.12278    -0.13347     0.10311    -0.00651    -0.02923    -0.10855
  
  S  H  28   0.19094    -0.06879    -0.17207     0.08532     0.13835    -0.00049
  
  S  C  29   0.00349     0.02584    -0.02338     0.01240     0.00873    -0.01493
 PX  C  29  -0.00648     0.23250     0.09068    -0.11769    -0.11143     0.21908
 PY  C  29   0.11317     0.06538    -0.20504     0.12892     0.23059     0.12576
 PZ  C  29   0.12861     0.06263     0.01622     0.05027    -0.01393     0.01806
  
  S  C  30  -0.01540    -0.02484    -0.00191    -0.00307    -0.00977     0.01599
 PX  C  30   0.02966    -0.13137    -0.03496     0.13770     0.13407    -0.18761
 PY  C  30  -0.12308    -0.05981     0.24137    -0.12800    -0.21929    -0.09507
 PZ  C  30   0.13852     0.06285     0.02838     0.06277    -0.04184     0.03524




    ROOT NO.   37          38          39          40          41          42

           -10.68911    -9.90944    -9.69168    -8.26928    -8.07416    -6.80680
  
  
  S  C   1   0.00437     0.01730    -0.00348     0.00923    -0.01163    -0.00800
 PX  C   1   0.00473     0.01321    -0.00324     0.00519    -0.01041    -0.00595
 PY  C   1   0.00424     0.01777    -0.00337     0.00794    -0.01032    -0.00591
 PZ  C   1  -0.11835    -0.36409     0.10680    -0.25937     0.19666     0.20731
  
  S  C   2  -0.00378    -0.00410     0.00565    -0.00607     0.00243     0.00569
 PX  C   2   0.01140     0.00765    -0.01616     0.02380     0.00770    -0.01395
 PY  C   2   0.00183    -0.00116    -0.00281     0.00641     0.00621    -0.00278
 PZ  C   2  -0.22041    -0.18127     0.28923    -0.35187    -0.03541     0.22631
  
  S  C   3  -0.00446     0.00375     0.00570    -0.00323    -0.00900    -0.00148
 PX  C   3   0.01316    -0.00448    -0.01235    -0.00743    -0.00509     0.00843
 PY  C   3  -0.00116     0.00226     0.00076    -0.00295     0.00088     0.00244
 PZ  C   3  -0.23235     0.23049     0.27966     0.01271    -0.31857    -0.18284
  
  S  C   4  -0.00468    -0.00454     0.00090     0.00421     0.00399    -0.00651
 PX  C   4  -0.02052    -0.01360     0.01615    -0.00232     0.01497    -0.00651
 PY  C   4  -0.00289    -0.00846     0.00241     0.00049     0.00076    -0.00365
 PZ  C   4   0.25868     0.30540    -0.17899     0.04944    -0.31906     0.15718
  
  S  C   5  -0.00555     0.00313     0.01006    -0.01510    -0.00404     0.01254
 PX  C   5   0.00985     0.00434    -0.00757    -0.00179    -0.00470     0.00386
 PY  C   5  -0.00547     0.00386     0.00619    -0.00645    -0.00044     0.00384
 PZ  C   5   0.20949    -0.07536    -0.34176     0.35737     0.04417    -0.23257
  
  S  C   6   0.00493    -0.01367    -0.01121     0.01090     0.01134    -0.00972
 PX  C   6  -0.00371    -0.00204     0.00355    -0.00126     0.00089     0.00090
 PY  C   6  -0.00323     0.00426     0.00731    -0.00365    -0.00541     0.00194
 PZ  C   6   0.09137    -0.30481    -0.24346     0.22940     0.25444    -0.20008
  
  S  C   7  -0.01293     0.00369     0.00850     0.00948     0.00169    -0.00948
 PX  C   7  -0.02584     0.00975     0.02057     0.01530     0.00565    -0.01722
 PY  C   7   0.00967    -0.00726    -0.00373     0.00136     0.00236     0.00572
 PZ  C   7  -0.34129     0.18888     0.23421     0.22301    -0.00438    -0.35047
  
  S  C   8   0.00978     0.00543    -0.00720    -0.00603    -0.00257     0.01253
 PX  C   8  -0.00557    -0.00235    -0.00952     0.00397    -0.00521    -0.00085
 PY  C   8   0.00341     0.00262     0.00168    -0.00138     0.00289    -0.00190
 PZ  C   8   0.36314     0.25201    -0.15365    -0.21172    -0.05975     0.35255
  
  S  C   9   0.00313     0.00081     0.00372     0.00183     0.00337    -0.00518
 PX  C   9   0.00552     0.00073     0.01256    -0.00460     0.01026    -0.00095
 PY  C   9  -0.01220    -0.01192     0.00055     0.01155    -0.02254    -0.00107
 PZ  C   9   0.26698    -0.02574     0.02387    -0.25826     0.35882    -0.03301
  
  S  C  10   0.01616     0.00472    -0.00377    -0.01284    -0.02259    -0.00192
 PX  C  10  -0.00339    -0.00388    -0.01348    -0.00643    -0.00980     0.00024
 PY  C  10   0.00653     0.00936     0.00166    -0.00788    -0.00105    -0.00061
 PZ  C  10  -0.26012    -0.01116    -0.03082     0.18469     0.37908     0.05941
  
  S  C  11  -0.00792    -0.01372    -0.00966     0.00971    -0.00046     0.01744
 PX  C  11   0.02357     0.00840     0.02680    -0.00710    -0.00594    -0.01909
 PY  C  11  -0.01552    -0.01030    -0.00083     0.00862    -0.00468     0.00468
 PZ  C  11  -0.32041    -0.16242    -0.27212     0.19406     0.01238     0.37536
  
  S  H  12   0.02018     0.00589     0.00883    -0.00854     0.00197    -0.00741
  
  S  C  13  -0.00908     0.00364    -0.00273     0.00544     0.00045     0.00755
 PX  C  13   0.00342     0.00225    -0.00419     0.00102    -0.00103     0.00260
 PY  C  13  -0.02112     0.02232    -0.01785     0.01105    -0.00107     0.02217
 PZ  C  13   0.32183    -0.24410     0.19069    -0.21545     0.02397    -0.37281
  
  S  H  14  -0.00494     0.00222     0.00472    -0.00471     0.00457     0.00403
  
  S  H  15  -0.00269    -0.01032     0.00202    -0.00308     0.00887     0.00370
  
  S  H  16   0.00197     0.00324    -0.00348     0.00551     0.00049    -0.00406
  
  S  H  17  -0.00281     0.00006    -0.00152     0.00609     0.00307    -0.00563
  
  S  H  18   0.00222     0.00781     0.00166    -0.00473    -0.00722     0.00500
  
  S  H  19   0.00015     0.00110     0.00704    -0.00049     0.00691    -0.00548
  
  S  H  20  -0.00321     0.00459    -0.00259    -0.00333     0.00198    -0.00280
  
  S  C  21  -0.01626     0.00678    -0.02825    -0.02528    -0.00745    -0.01616
 PX  C  21   0.00223    -0.00872     0.00615     0.00209    -0.00547    -0.00325
 PY  C  21   0.02171    -0.02063     0.03389     0.02923     0.00188     0.01785
 PZ  C  21  -0.19600     0.18315    -0.32780    -0.34783    -0.04324    -0.24796
  
  S  C  22   0.00157     0.00207     0.00289    -0.00028     0.00301    -0.00203
 PX  C  22  -0.01564     0.04742    -0.01948    -0.02527     0.02647    -0.01517
 PY  C  22  -0.00275    -0.00969    -0.00819    -0.00054    -0.01189     0.00092
 PZ  C  22  -0.10345     0.37504    -0.13101    -0.24186     0.25813    -0.18035
  
  S  C  23   0.00231     0.00920     0.00809     0.00898     0.00899     0.00896
 PX  C  23   0.00573    -0.01757     0.00623     0.00454    -0.00761     0.00150
 PY  C  23  -0.00090    -0.00817    -0.00369    -0.00597    -0.00672    -0.00677
 PZ  C  23   0.06365     0.31826     0.21657     0.19004     0.30285     0.20283
  
  S  C  24  -0.00704     0.00092    -0.00900    -0.01019     0.00254    -0.00765
 PX  C  24  -0.00763     0.01119    -0.01476    -0.01262     0.00115    -0.00870
 PY  C  24  -0.00302    -0.00329    -0.01837    -0.01611    -0.00538    -0.01086
 PZ  C  24   0.17363     0.06009     0.34899     0.34250     0.01766     0.23632
  
  S  H  25   0.00079    -0.00684     0.00313     0.00994    -0.00389     0.00955
  
  S  H  26  -0.00539     0.01579    -0.00649    -0.00371     0.00566     0.00112
  
  S  H  27   0.00407    -0.01207     0.00550     0.00273    -0.00626    -0.00028
  
  S  H  28   0.00631    -0.00749     0.00319     0.00483    -0.00581     0.00443
  
  S  C  29   0.00384     0.01363     0.01400     0.00507     0.01801    -0.00384
 PX  C  29   0.00394     0.00673     0.00019     0.00192     0.01197     0.00578
 PY  C  29   0.01025     0.01053    -0.00335    -0.00779     0.00655    -0.00119
 PZ  C  29  -0.20284    -0.19613    -0.29284    -0.02695    -0.36871     0.10351
  
  S  C  30   0.00607    -0.00133     0.00172    -0.00229    -0.00655    -0.00445
 PX  C  30  -0.00505     0.00321     0.00016    -0.00081     0.00299     0.00245
 PY  C  30  -0.01024     0.00598     0.00069     0.00381     0.01927     0.00777
 PZ  C  30   0.20063    -0.28051     0.20521     0.08449    -0.33474    -0.12599




    ROOT NO.   43          44          45          46          47          48

            -0.91249     0.22751     0.29893     1.28302     1.39921     1.87278
  
  
  S  C   1  -0.01482    -0.00368     0.01898     0.00475     0.02355     0.00308
 PX  C   1  -0.00656    -0.00763     0.00784    -0.00413     0.01416    -0.00168
 PY  C   1  -0.00903     0.00175     0.01046     0.00699     0.00738     0.00474
 PZ  C   1   0.21646     0.07308    -0.31231    -0.10403    -0.37170    -0.11186
  
  S  C   2   0.00146     0.01132    -0.00082     0.01352    -0.01326     0.01121
 PX  C   2   0.01217    -0.00502    -0.01048    -0.00580    -0.00706    -0.00178
 PY  C   2   0.00810     0.00215    -0.00654     0.00275    -0.00935     0.00378
 PZ  C   2  -0.23733     0.16853     0.29783     0.29500     0.20468     0.19985
  
  S  C   3  -0.00874    -0.01573     0.00270    -0.03146     0.02087    -0.03254
 PX  C   3  -0.00783     0.00254     0.00418     0.00191     0.00240    -0.00028
 PY  C   3   0.00188     0.00251    -0.00258     0.00008    -0.00073    -0.00152
 PZ  C   3  -0.17932    -0.29480     0.14100    -0.30909     0.21483    -0.21412
  
  S  C   4  -0.00047     0.00443     0.00510     0.02196    -0.01262     0.02339
 PX  C   4   0.00937    -0.00694     0.00033     0.00394     0.00372     0.00512
 PY  C   4  -0.00571    -0.00403     0.00594    -0.00912     0.00490    -0.01358
 PZ  C   4  -0.16167     0.26589    -0.19005    -0.20103    -0.31139    -0.24270
  
  S  C   5   0.00648    -0.00490    -0.01221    -0.02288     0.00459    -0.02145
 PX  C   5  -0.00033    -0.00312    -0.00079    -0.00894     0.00687    -0.00873
 PY  C   5   0.00892    -0.00975    -0.00938    -0.01480     0.00534    -0.00761
 PZ  C   5  -0.24754     0.20084     0.28808     0.35828    -0.06700     0.17880
  
  S  C   6   0.01061    -0.01433    -0.00685    -0.01224     0.00532    -0.00318
 PX  C   6  -0.00159     0.00632    -0.00037     0.00616    -0.01021     0.00300
 PY  C   6  -0.01103     0.00977     0.01136     0.01523    -0.00193     0.00900
 PZ  C   6   0.21191    -0.32830    -0.08546    -0.25187     0.29878    -0.06829
  
  S  C   7   0.01362     0.01407    -0.00888     0.02451    -0.02176     0.03032
 PX  C   7   0.01485    -0.00142    -0.00812     0.00037    -0.00359     0.00201
 PY  C   7  -0.00644     0.01172     0.00498    -0.00855     0.00208    -0.01531
 PZ  C   7   0.35318    -0.07706    -0.19629     0.26369    -0.17779     0.31504
  
  S  C   8   0.01139    -0.00850    -0.00833     0.00114     0.01745     0.01505
 PX  C   8  -0.00613    -0.00068     0.00281    -0.00040    -0.00093     0.00175
 PY  C   8  -0.00084     0.00007     0.00196     0.00456    -0.00106     0.00599
 PZ  C   8   0.36060    -0.14519    -0.15311     0.17142     0.25001     0.34221
  
  S  C   9  -0.00353     0.01285     0.00127    -0.00102    -0.01447    -0.01136
 PX  C   9   0.00528     0.00135    -0.00020     0.00115     0.00176     0.00277
 PY  C   9  -0.00783    -0.00192    -0.01836    -0.00543    -0.00257     0.02157
 PZ  C   9   0.02400    -0.20467     0.39295     0.01604     0.01577    -0.28361
  
  S  C  10  -0.00086    -0.03617     0.00047    -0.00246     0.01181     0.01097
 PX  C  10  -0.00124    -0.00423    -0.00013     0.00520    -0.00265     0.00242
 PY  C  10   0.00569    -0.00490    -0.00174     0.00855     0.00005     0.01364
 PZ  C  10   0.04794     0.42562     0.00886     0.00964     0.00197    -0.26611
  
  S  C  11  -0.01310     0.00386     0.00044    -0.00799    -0.00817     0.00671
 PX  C  11   0.01844    -0.01129     0.01002     0.00893    -0.00901    -0.00520
 PY  C  11   0.00071    -0.00571     0.00498    -0.00052    -0.00724     0.00112
 PZ  C  11  -0.35247    -0.09921    -0.16594    -0.25813     0.14579     0.34196
  
  S  H  12   0.00593    -0.00027     0.00205     0.00354     0.00354    -0.00295
  
  S  C  13   0.00670    -0.00159     0.00388     0.00540     0.01629    -0.01493
 PX  C  13  -0.00165     0.00074    -0.00142     0.00056     0.00101    -0.00177
 PY  C  13   0.02069     0.00720     0.01139     0.01083     0.01122    -0.02331
 PZ  C  13  -0.35813    -0.07520    -0.20028    -0.16932    -0.23159     0.33860
  
  S  H  14  -0.00595    -0.00400     0.00842    -0.01396     0.01374    -0.02369
  
  S  H  15   0.00909     0.00390    -0.01078     0.00057    -0.01562     0.00083
  
  S  H  16   0.00149    -0.00437    -0.00092    -0.00496     0.00522    -0.00391
  
  S  H  17  -0.00190     0.00342     0.00685     0.01686    -0.00311     0.01630
  
  S  H  18  -0.00729     0.00971     0.00506     0.00937    -0.00440     0.00312
  
  S  H  19  -0.00445     0.00519     0.00669    -0.00119    -0.01005    -0.01405
  
  S  H  20  -0.00219     0.00162    -0.00103    -0.00432    -0.01042     0.01147
  
  S  C  21   0.02109     0.01383     0.03546    -0.03516    -0.03660     0.03561
 PX  C  21   0.00661     0.00628     0.00567    -0.00870    -0.00084     0.00484
 PY  C  21  -0.01598    -0.01443    -0.02071     0.02268     0.00987    -0.01614
 PZ  C  21   0.24370     0.18187     0.30984    -0.29269    -0.18988     0.21007
  
  S  C  22  -0.00583     0.00330    -0.01711     0.01103     0.03071    -0.01623
 PX  C  22  -0.01281     0.00921    -0.02122     0.00429     0.02104    -0.00374
 PY  C  22   0.01264     0.00488     0.01940    -0.01516    -0.01383     0.01227
 PZ  C  22  -0.17892     0.12629    -0.33895     0.10371     0.38342    -0.11331
  
  S  C  23  -0.00551    -0.01519     0.00481     0.00382    -0.02869     0.00584
 PX  C  23   0.00139    -0.00175     0.00217    -0.00009    -0.00400     0.00112
 PY  C  23   0.00438     0.01125    -0.00276    -0.00370     0.01608    -0.00158
 PZ  C  23  -0.20727    -0.34969    -0.05191     0.21012    -0.31331    -0.06185
  
  S  C  24  -0.00644     0.00139    -0.01161     0.00524     0.01470    -0.00630
 PX  C  24  -0.00219     0.00385    -0.00699     0.00305     0.00717    -0.00322
 PY  C  24  -0.00932    -0.00762    -0.01384     0.01616    -0.00425    -0.00887
 PZ  C  24   0.23982     0.17514     0.31258    -0.32602     0.05409     0.18157
  
  S  H  25  -0.00969    -0.01099    -0.01793     0.02465     0.01967    -0.02553
  
  S  H  26   0.00151    -0.00463     0.00960    -0.00442    -0.02005     0.00830
  
  S  H  27   0.00468     0.00768     0.00015    -0.00301     0.01548    -0.00341
  
  S  H  28   0.00519    -0.00154     0.00962    -0.00429    -0.00975     0.00421
  
  S  C  29  -0.00678     0.01111    -0.01886     0.00250     0.02827    -0.00971
 PX  C  29  -0.01518     0.00064    -0.01692     0.00734     0.01491    -0.00683
 PY  C  29  -0.00405     0.00846    -0.00079    -0.00893     0.00524     0.00552
 PZ  C  29   0.09713    -0.34638     0.12089     0.30381    -0.19083    -0.23976
  
  S  C  30   0.00375     0.00038     0.00301     0.00014    -0.01292     0.00602
 PX  C  30   0.00540    -0.00381     0.01024    -0.00176    -0.00583    -0.00094
 PY  C  30  -0.00834    -0.00738     0.00506    -0.01031    -0.00582     0.01045
 PZ  C  30   0.12612     0.26108    -0.22485     0.17992     0.28632    -0.21317




    ROOT NO.   49          50          51          52          53          54

             2.37300     2.47717     2.87424     3.11006     3.34832     3.44514
  
  
  S  C   1   0.01894    -0.15130     0.14442    -0.08688     0.28194    -0.06545
 PX  C   1   0.00104    -0.03411     0.01510    -0.00202     0.00267    -0.08489
 PY  C   1   0.00165    -0.03218     0.02869    -0.02144     0.04061     0.05642
 PZ  C   1   0.32613     0.07877     0.08998     0.22667     0.07774     0.01133
  
  S  C   2  -0.05396     0.21709    -0.18288     0.05829    -0.23043     0.18773
 PX  C   2  -0.00706     0.03729    -0.00630    -0.00913     0.06002     0.04629
 PY  C   2  -0.01704     0.07645    -0.04161     0.00411     0.01095     0.03813
 PZ  C   2  -0.24441    -0.08425    -0.06997    -0.25365    -0.06044    -0.02556
  
  S  C   3   0.08568    -0.32746     0.21668    -0.02751     0.06426    -0.17589
 PX  C   3   0.00107     0.03204    -0.06895     0.02988    -0.06120    -0.10150
 PY  C   3   0.00950    -0.05484     0.01781    -0.00506    -0.08944     0.12602
 PZ  C   3   0.05671     0.05910     0.05398     0.33067     0.08676     0.03995
  
  S  C   4  -0.07532     0.34636    -0.21042     0.04936     0.05668    -0.20406
 PX  C   4  -0.01232     0.02179     0.02157    -0.02223     0.05384     0.09923
 PY  C   4   0.01069    -0.04609     0.07597    -0.01433     0.09245    -0.11321
 PZ  C   4  -0.07957    -0.01632    -0.08290    -0.32276    -0.09643    -0.02467
  
  S  C   5   0.04014    -0.23202     0.16938    -0.08008     0.05698     0.25937
 PX  C   5   0.01785    -0.09143     0.04051    -0.00116    -0.06309     0.04566
 PY  C   5  -0.01232     0.00349    -0.01826     0.00153    -0.05933     0.00221
 PZ  C   5   0.25031     0.03736     0.09192     0.24007     0.06104     0.03093
  
  S  C   6  -0.03983     0.15089    -0.14760     0.07909    -0.22306    -0.15075
 PX  C   6   0.00127     0.04451    -0.02626     0.01953    -0.01225    -0.01365
 PY  C   6   0.00107     0.02170     0.00223    -0.00110     0.08110    -0.09355
 PZ  C   6  -0.32325    -0.07964    -0.07710    -0.23236    -0.03967    -0.00887
  
  S  C   7  -0.08677     0.24581    -0.05927    -0.02718     0.08221     0.29729
 PX  C   7   0.00285    -0.05033     0.09252    -0.02853     0.07088     0.02491
 PY  C   7  -0.02894     0.02033     0.04632    -0.00651     0.06231     0.04122
 PZ  C   7   0.13690     0.01179    -0.01049    -0.20110    -0.06951    -0.02575
  
  S  C   8   0.07485    -0.26901     0.04475     0.02054    -0.24200     0.20776
 PX  C   8   0.01842    -0.00287    -0.09115     0.03307    -0.10696    -0.01286
 PY  C   8  -0.00948     0.05552    -0.05446     0.01816    -0.02445    -0.02347
 PZ  C   8  -0.10104    -0.02749     0.03149     0.19101     0.08927    -0.00213
  
  S  C   9  -0.09813     0.22543     0.11572    -0.06660     0.34794    -0.09811
 PX  C   9  -0.00928    -0.02247     0.07227    -0.01330    -0.01475     0.08604
 PY  C   9   0.00329    -0.02349     0.02402     0.00245    -0.03589    -0.14624
 PZ  C   9   0.29168     0.11562     0.02549    -0.04931    -0.06664     0.00340
  
  S  C  10   0.11907    -0.20346    -0.10770     0.05578    -0.23926    -0.28249
 PX  C  10   0.00086     0.03268    -0.05932    -0.00352     0.06559    -0.05767
 PY  C  10   0.01208    -0.00371    -0.05493     0.01283    -0.09161     0.11465
 PZ  C  10  -0.31684    -0.12820    -0.03689     0.06921     0.03489    -0.02754
  
  S  C  11  -0.08662     0.16409     0.20021    -0.04738     0.05104     0.28166
 PX  C  11   0.01163    -0.03140     0.04030     0.00224    -0.09905    -0.04789
 PY  C  11  -0.01249     0.01412     0.06077    -0.00450    -0.05286     0.00225
 PZ  C  11   0.16656     0.05219     0.02806     0.10214    -0.02127    -0.00778
  
  S  H  12   0.04399    -0.09025    -0.12123     0.03481    -0.05236    -0.13502
  
  S  C  13   0.08223    -0.16918    -0.19944     0.05922    -0.15303     0.17730
 PX  C  13   0.00522     0.00289    -0.07510     0.00216     0.09640     0.02234
 PY  C  13  -0.00994     0.04589     0.00627    -0.00332     0.08066    -0.00990
 PZ  C  13  -0.11254    -0.05953    -0.04776    -0.12088     0.02865    -0.00267
  
  S  H  14   0.04482    -0.14683     0.04200     0.02045    -0.07413    -0.15111
  
  S  H  15  -0.00914     0.08815    -0.08026     0.04910    -0.15579     0.05063
  
  S  H  16   0.03044    -0.12734     0.11674    -0.04091     0.15470    -0.09421
  
  S  H  17  -0.01922     0.13279    -0.10586     0.05477    -0.04818    -0.14440
  
  S  H  18   0.02846    -0.09676     0.09490    -0.04772     0.14562     0.10205
  
  S  H  19  -0.04243     0.15665    -0.03421    -0.01545     0.15164    -0.09134
  
  S  H  20  -0.04509     0.08140     0.11153    -0.03386     0.07888    -0.05584
  
  S  C  21  -0.09447     0.08064     0.25179     0.03455    -0.21067     0.11903
 PX  C  21   0.01217    -0.04329    -0.05921     0.02987     0.00005    -0.06791
 PY  C  21   0.00519     0.00911     0.02715    -0.00779    -0.04393    -0.02482
 PZ  C  21  -0.18582    -0.10079    -0.04396     0.21884     0.05812    -0.01446
  
  S  C  22   0.07716    -0.04948    -0.20648    -0.04821     0.22972     0.01214
 PX  C  22   0.00181     0.02616     0.05121    -0.01104    -0.03595    -0.00850
 PY  C  22  -0.01408     0.00266     0.00101     0.00704     0.01110     0.09246
 PZ  C  22   0.27791     0.12907     0.03889    -0.21509    -0.05017     0.00538
  
  S  C  23  -0.07173     0.05597     0.21269     0.03058    -0.19459    -0.18664
 PX  C  23   0.00109    -0.02436    -0.03196     0.02245    -0.02130     0.05873
 PY  C  23   0.02362    -0.00390    -0.03391    -0.01750     0.04137    -0.02020
 PZ  C  23  -0.29770    -0.12451    -0.02489     0.22781     0.04400     0.01413
  
  S  C  24   0.06032    -0.10260    -0.25660     0.02816     0.12833     0.22636
 PX  C  24  -0.00022     0.02292     0.01311    -0.02133     0.04666     0.00307
 PY  C  24  -0.02730     0.03031     0.05489     0.00032     0.00716    -0.02166
 PZ  C  24   0.24062     0.08450    -0.01957    -0.25506    -0.01239    -0.00110
  
  S  H  25   0.05580    -0.04243    -0.15330    -0.02891     0.13627    -0.04966
  
  S  H  26  -0.04726     0.02964     0.12068     0.02841    -0.13571     0.00570
  
  S  H  27   0.04427    -0.03514    -0.13044    -0.02051     0.11745     0.12496
  
  S  H  28  -0.03334     0.05534     0.15368    -0.01733    -0.09549    -0.11789
  
  S  C  29   0.09302    -0.14833    -0.31022     0.03916     0.14325    -0.16572
 PX  C  29   0.00570     0.02954    -0.00784    -0.02674     0.07499    -0.01350
 PY  C  29  -0.00061     0.00097    -0.04516     0.01174     0.03504     0.13401
 PZ  C  29   0.05002     0.01558    -0.04619    -0.27175     0.00046    -0.00673
  
  S  C  30  -0.08303     0.15974     0.31564    -0.05532    -0.06310    -0.16175
 PX  C  30  -0.00034    -0.01555     0.04479     0.00432    -0.10854     0.05673
 PY  C  30   0.01852    -0.02186    -0.03371    -0.00583     0.00802    -0.11945
 PZ  C  30  -0.09023    -0.02329     0.04579     0.30101    -0.00359     0.00505




    ROOT NO.   55          56          57          58          59          60

             3.53775     3.66596     3.79544     3.93025     4.18550     4.30965
  
  
  S  C   1  -0.33902     0.14346    -0.06870     0.07181     0.02635     0.04052
 PX  C   1   0.05858    -0.03525    -0.02231     0.11735     0.11325     0.02098
 PY  C   1  -0.07703     0.03405     0.01126    -0.06888    -0.03697    -0.02077
 PZ  C   1   0.01325     0.08768     0.00316     0.00400     0.00554     0.00186
  
  S  C   2   0.10084    -0.02106     0.07187    -0.27049    -0.24236    -0.05831
 PX  C   2  -0.14925     0.08020    -0.01388    -0.04987    -0.03494     0.00253
 PY  C   2  -0.09662     0.05715    -0.01941    -0.00764     0.03996     0.01344
 PZ  C   2  -0.05151    -0.10336    -0.01387     0.01097     0.00244     0.00489
  
  S  C   3   0.25059    -0.15725     0.01677     0.17866     0.00388     0.04046
 PX  C   3   0.00071     0.01799    -0.04095    -0.01868    -0.18277     0.03496
 PY  C   3   0.11245    -0.06048     0.06399    -0.12532    -0.04465    -0.04881
 PZ  C   3   0.08812     0.20726     0.02364    -0.02184     0.00131    -0.01160
  
  S  C   4  -0.23675     0.14268    -0.11265     0.08906    -0.07131     0.05737
 PX  C   4  -0.05677     0.01013     0.05893    -0.14333    -0.15805    -0.03426
 PY  C   4   0.08665    -0.07554     0.02443     0.08314    -0.11153     0.03897
 PZ  C   4  -0.11815    -0.18596    -0.02925     0.00857     0.01007     0.00585
  
  S  C   5  -0.01632    -0.03612     0.12783    -0.27665    -0.24978    -0.07193
 PX  C   5   0.13988    -0.07368     0.03242     0.02014     0.06422     0.00395
 PY  C   5   0.09302    -0.05370     0.02006    -0.00689    -0.02072    -0.00821
 PZ  C   5   0.07183     0.08608     0.02421    -0.02048    -0.02265    -0.00631
  
  S  C   6   0.33979    -0.15181    -0.01117     0.17242     0.12161     0.03299
 PX  C   6  -0.00103     0.01242    -0.01003     0.00797     0.02531    -0.00241
 PY  C   6  -0.10539     0.05886    -0.05833     0.10733     0.08893     0.03653
 PZ  C   6  -0.07085    -0.05900    -0.01217    -0.00436    -0.00108     0.00008
  
  S  C   7  -0.12041     0.03985     0.10216    -0.06493     0.34482    -0.09952
 PX  C   7   0.09318    -0.07784     0.04719     0.08336     0.08294     0.01556
 PY  C   7   0.06293    -0.03501     0.04318     0.05438    -0.03897     0.04271
 PZ  C   7  -0.09625    -0.21584    -0.02630     0.00876    -0.02356     0.01871
  
  S  C   8   0.03770     0.05718    -0.05958    -0.06853     0.36118    -0.07241
 PX  C   8  -0.10981     0.08769    -0.09055     0.02930    -0.02995     0.05642
 PY  C   8  -0.05719     0.05084    -0.04104     0.01915     0.07657     0.00233
 PZ  C   8   0.11656     0.19315     0.02977     0.00537    -0.03648     0.00478
  
  S  C   9   0.16194    -0.17903     0.18210     0.02747    -0.05622    -0.11397
 PX  C   9   0.04659    -0.00678     0.00042    -0.05093     0.16615    -0.06856
 PY  C   9  -0.00172     0.02889    -0.08111    -0.08157    -0.03974    -0.14240
 PZ  C   9  -0.17334    -0.30161    -0.03930    -0.01517     0.02414    -0.00371
  
  S  C  10  -0.12803     0.11863    -0.19613    -0.08586    -0.13631    -0.08535
 PX  C  10  -0.01263    -0.02143     0.08660    -0.06097     0.05063    -0.17140
 PY  C  10  -0.08002     0.06056    -0.02581    -0.03234     0.13156     0.01695
 PZ  C  10   0.15172     0.32416     0.01289     0.00184    -0.01898    -0.01996
  
  S  C  11   0.09082    -0.04631    -0.09154     0.12739    -0.03318     0.36922
 PX  C  11  -0.03030     0.05451    -0.14249     0.01751    -0.05959     0.03017
 PY  C  11  -0.00632     0.02525    -0.09181     0.00701    -0.02022    -0.08051
 PZ  C  11  -0.13695    -0.24502    -0.03363    -0.02709     0.00929    -0.00097
  
  S  H  12  -0.07556     0.04056     0.06261    -0.06494     0.04793    -0.32912
  
  S  C  13  -0.12101     0.07248     0.07260     0.15271    -0.07285     0.36296
 PX  C  13   0.01563    -0.04667     0.11925     0.08893    -0.01895    -0.04957
 PY  C  13   0.02260    -0.05716     0.05603     0.04294    -0.01873     0.04392
 PZ  C  13   0.14168     0.24615     0.04534     0.02507    -0.02068     0.01508
  
  S  H  14   0.10069    -0.02935    -0.06452     0.03413    -0.30996     0.11122
  
  S  H  15   0.17871    -0.07278     0.03735    -0.03868     0.02766    -0.02952
  
  S  H  16  -0.08378     0.02309    -0.04756     0.18880     0.22505     0.03891
  
  S  H  17   0.00069     0.03696    -0.09108     0.18972     0.22725     0.04876
  
  S  H  18  -0.23197     0.10997     0.00123    -0.10677    -0.04328    -0.02438
  
  S  H  19  -0.03704    -0.03970     0.05639     0.03282    -0.32767     0.08761
  
  S  H  20   0.07322    -0.03840    -0.05544    -0.07353     0.07239    -0.30681
  
  S  C  21  -0.09679     0.03890    -0.05261     0.29589    -0.13801    -0.25159
 PX  C  21  -0.04155    -0.01623     0.18579     0.02432    -0.00330    -0.03943
 PY  C  21  -0.02735     0.02200     0.11666     0.01896     0.00846     0.02760
 PZ  C  21  -0.06305    -0.15591    -0.02698    -0.07273     0.02991     0.05670
  
  S  C  22   0.15237    -0.04311    -0.33043    -0.22035     0.05886     0.06379
 PX  C  22  -0.01027     0.01423     0.00916     0.00803    -0.00244    -0.03446
 PY  C  22   0.01387    -0.01070    -0.13982     0.09842    -0.05985    -0.09902
 PZ  C  22   0.04889     0.12013     0.04266     0.04609    -0.01483    -0.01658
  
  S  C  23  -0.12432     0.04320     0.38422    -0.05196     0.06147     0.07208
 PX  C  23  -0.03638    -0.00381     0.07353     0.14651    -0.05091    -0.10647
 PY  C  23   0.03060    -0.00309    -0.04424    -0.07611     0.03014     0.02526
 PZ  C  23  -0.05400    -0.12696    -0.06670    -0.02669     0.00502     0.00536
  
  S  C  24   0.01816    -0.05294    -0.06723     0.30592    -0.12220    -0.25813
 PX  C  24   0.05301    -0.00728    -0.17633    -0.06853     0.00139     0.00442
 PY  C  24   0.01700    -0.00986    -0.09730    -0.01756    -0.02039    -0.08092
 PZ  C  24   0.09547     0.16626     0.03746     0.03232    -0.01306    -0.01852
  
  S  H  25   0.06888    -0.02119     0.03876    -0.19222     0.09941     0.23477
  
  S  H  26  -0.08972     0.02621     0.20109     0.13503    -0.03420     0.00824
  
  S  H  27   0.07865    -0.02385    -0.24564     0.02870    -0.03726     0.00097
  
  S  H  28  -0.01643     0.04272     0.04337    -0.19799     0.08580     0.25208
  
  S  C  29  -0.01994    -0.05637     0.35248    -0.09841     0.07796    -0.03074
 PX  C  29   0.05701    -0.01883    -0.03843    -0.13653     0.06282     0.15484
 PY  C  29  -0.00127    -0.02929     0.06269     0.12143    -0.02652     0.12301
 PZ  C  29   0.14823     0.26713     0.07071     0.03791    -0.01091    -0.01855
  
  S  C  30   0.06109     0.03352    -0.28860    -0.25353     0.04932    -0.04427
 PX  C  30  -0.03814     0.04783    -0.03159     0.02068    -0.01792     0.17400
 PY  C  30  -0.00727     0.00813     0.14777    -0.13309     0.07234     0.06529
 PZ  C  30  -0.16418    -0.28101    -0.04889    -0.03506     0.01773     0.01383




    ROOT NO.   61          62          63          64          65          66

             5.19840     5.58537     5.65563     5.71841     6.15509     6.44346
  
  
  S  C   1   0.05369    -0.19755     0.18767    -0.22711    -0.07433    -0.01162
 PX  C   1  -0.13477    -0.01501    -0.07871     0.16282     0.12560     0.03127
 PY  C   1   0.06242     0.22964    -0.15478     0.14421     0.02179     0.00105
 PZ  C   1   0.00032    -0.01348     0.01083    -0.01174    -0.00212     0.00007
  
  S  C   2   0.18028     0.04849     0.07005    -0.16260    -0.13120    -0.03637
 PX  C   2   0.07374    -0.10895     0.12741    -0.16874    -0.06919    -0.01399
 PY  C   2  -0.04672    -0.03472    -0.05265     0.13841     0.22759     0.10279
 PZ  C   2  -0.00150    -0.00303    -0.00036     0.00317     0.00593     0.00236
  
  S  C   3  -0.02783     0.07791    -0.01806    -0.04522    -0.17994    -0.08726
 PX  C   3   0.16831     0.02732     0.01525    -0.03170     0.11080     0.06678
 PY  C   3   0.05487     0.04429     0.03435    -0.10023    -0.16728    -0.07162
 PZ  C   3  -0.00444    -0.00387     0.00016     0.00333     0.00503     0.00079
  
  S  C   4   0.03560    -0.04870    -0.00105     0.04790     0.15555     0.06681
 PX  C   4  -0.13685    -0.09176    -0.01193     0.09179     0.10514     0.03686
 PY  C   4  -0.10273     0.06338    -0.04757     0.01132    -0.18510    -0.10270
 PZ  C   4   0.00828     0.00153    -0.00071     0.00079     0.00406     0.00208
  
  S  C   5  -0.18239    -0.14606     0.00214     0.10408     0.13234     0.03636
 PX  C   5  -0.01616     0.03059     0.00848    -0.05650    -0.14006    -0.05807
 PY  C   5  -0.13430    -0.20775     0.07045     0.01699     0.13559     0.05331
 PZ  C   5  -0.02384    -0.02211     0.00478     0.00619     0.01173     0.00315
  
  S  C   6  -0.16256    -0.24416     0.10939    -0.04822     0.04457     0.01360
 PX  C   6   0.11602     0.25383    -0.12570     0.06573    -0.05993    -0.02038
 PY  C   6   0.10370    -0.00386     0.07432    -0.14522    -0.10282    -0.02226
 PZ  C   6   0.02257     0.02955    -0.01134     0.00188    -0.00869    -0.00250
  
  S  C   7  -0.23358    -0.03399    -0.01447     0.02801    -0.12899    -0.07573
 PX  C   7  -0.06750     0.01732     0.00378    -0.05015    -0.15631    -0.08542
 PY  C   7   0.10537     0.05592     0.01470    -0.08334     0.15472     0.20701
 PZ  C   7   0.02520     0.00369     0.00266    -0.00599     0.01656     0.01581
  
  S  C   8   0.22141    -0.01961     0.06154    -0.06781     0.11685     0.07448
 PX  C   8  -0.05951    -0.06668    -0.03274     0.07529    -0.05716    -0.12901
 PY  C   8   0.10617    -0.03704     0.05212    -0.04649     0.18091     0.15648
 PZ  C   8  -0.02074    -0.00075    -0.00414     0.00474    -0.00792    -0.00481
  
  S  C   9   0.04962     0.10305     0.03951    -0.09620     0.05937     0.15119
 PX  C   9   0.16091    -0.01791     0.03637    -0.03274     0.09470     0.05173
 PY  C   9   0.06424    -0.07577     0.00333     0.12310     0.00063    -0.18228
 PZ  C   9   0.01336    -0.00372     0.00213     0.00338     0.00384    -0.00757
  
  S  C  10  -0.03783    -0.06965    -0.01967     0.13849    -0.04997    -0.16222
 PX  C  10  -0.13032     0.08435     0.01427    -0.06836    -0.04198     0.12275
[...]
  S   H   18   -0.0757   -0.0258    0.0274   -0.0591   -0.0091    0.3178    0.0106   -0.0693
  S   H   19   -0.2018   -0.1798   -0.2454    0.1383    0.1346    0.0560   -0.0214    0.1732
  S   H   20    0.0948   -0.2771   -0.3203   -0.0977   -0.0791   -0.0145    0.0766   -0.2001
  S   C   21    0.1308   -0.0928    0.0363    0.0098    0.0301   -0.0006    0.0595    0.0145
  Px  C   21    0.1053   -0.1286    0.1588    0.0511    0.2951    0.0043   -0.1021    0.0819
  Py  C   21   -0.1336    0.1212   -0.0550   -0.0215   -0.0867   -0.0044    0.2843    0.0864
  Pz  C   21   -0.0308    0.0256   -0.0130   -0.0041   -0.0177   -0.0003    0.0194    0.0057
  S   C   22    0.0697   -0.0378   -0.0353   -0.0095   -0.0495    0.0011   -0.0888   -0.0528
  Px  C   22    0.0821   -0.0548   -0.0269   -0.0099   -0.0243   -0.0043    0.4649    0.2172
  Py  C   22    0.0864   -0.0614    0.0401    0.0099    0.0732    0.0013   -0.0349   -0.0014
  Pz  C   22   -0.0009   -0.0003    0.0030    0.0010    0.0020    0.0004   -0.0349   -0.0151
  S   C   23   -0.0399    0.0276   -0.0384   -0.0100   -0.0560   -0.0011    0.0945    0.0158
  Px  C   23   -0.1004    0.0672    0.0008   -0.0025    0.0030    0.0018   -0.2425    0.0220
  Py  C   23    0.0111   -0.0021   -0.0540   -0.0169   -0.0862    0.0048   -0.4326   -0.1254
  Pz  C   23    0.0053   -0.0037    0.0004    0.0000    0.0010    0.0002   -0.0162   -0.0035
  S   C   24   -0.1048    0.0696    0.0163    0.0036   -0.0076    0.0013   -0.0827    0.0430
  Px  C   24    0.0394   -0.0321    0.0319    0.0070    0.0701    0.0020   -0.2154    0.0141
  Py  C   24   -0.1615    0.1688    0.1665    0.0520    0.3147   -0.0058    0.2225   -0.1536
  Pz  C   24   -0.0126    0.0118    0.0093    0.0028    0.0160   -0.0001    0.0030   -0.0057
  S   H   25   -0.2061    0.1796   -0.1213   -0.0404   -0.1936   -0.0039    0.1827    0.0172
  S   H   26   -0.1084    0.0696    0.0270    0.0089    0.0199    0.0025   -0.2927   -0.1385
  S   H   27    0.0569   -0.0444    0.0432    0.0138    0.0591   -0.0030    0.3123    0.0637
  S   H   28    0.1745   -0.1543   -0.1134   -0.0357   -0.1945    0.0036   -0.1722    0.0829
  S   C   29    0.1347   -0.1611    0.1093    0.0320    0.2661   -0.0004   -0.0006    0.0194
  Px  C   29   -0.0919    0.0670   -0.0024   -0.0006    0.0871    0.0054   -0.1129    0.0933
  Py  C   29    0.1114   -0.1699   -0.0396   -0.0033   -0.1592    0.0002   -0.0295    0.1021
  Pz  C   29    0.0142   -0.0182    0.0075    0.0014    0.0188    0.0002   -0.0050    0.0046
  S   C   30   -0.1396    0.1561    0.1143    0.0303    0.2772    0.0003   -0.0243   -0.0192
  Px  C   30   -0.0562    0.1262   -0.0167   -0.0016   -0.0785   -0.0031    0.1142   -0.2134
  Py  C   30    0.1297   -0.1473    0.0213    0.0044    0.1760   -0.0049    0.0714   -0.0637
  Pz  C   30    0.0077   -0.0088   -0.0032   -0.0011   -0.0021   -0.0004    0.0043   -0.0058


   Root No.      73        74        75        76        77        78        79        80

                73 ????   13 ag      9 au      9 bu     77 ????   78 ????   10 au     80 ????

                 9.354     9.545    10.167    10.563    11.021    11.688    11.800    12.152
  
  S   C    1    0.0331    0.0779   -0.0529   -0.0708    0.0158    0.0101    0.0033    0.0065
  Px  C    1    0.1217    0.2247    0.0717   -0.1639   -0.1712    0.0727   -0.2155   -0.1824
  Py  C    1    0.0400    0.1410   -0.2360   -0.1062    0.1578   -0.0256    0.1526    0.1437
  Pz  C    1    0.0065    0.0153   -0.0089   -0.0125    0.0014    0.0016   -0.0005    0.0003
  S   C    2   -0.0634   -0.0828   -0.0870    0.0223    0.0920    0.0108    0.0482    0.0322
  Px  C    2    0.1175    0.2354   -0.0157   -0.2054   -0.0863    0.1006   -0.1788   -0.1609
  Py  C    2   -0.1871   -0.1819   -0.2535   -0.0500    0.1889    0.1044   -0.0034   -0.0270
  Pz  C    2    0.0031    0.0092   -0.0027   -0.0103   -0.0037    0.0062   -0.0107   -0.0093
  S   C    3   -0.0274   -0.0555   -0.0202    0.0434    0.0383   -0.0094    0.0261    0.0174
  Px  C    3   -0.1785   -0.1505   -0.2416   -0.0314   -0.0834   -0.2551    0.0617    0.1058
  Py  C    3   -0.0759   -0.0217   -0.2308   -0.1261    0.2904    0.3279   -0.1078   -0.1579
  Pz  C    3   -0.0016    0.0007   -0.0040   -0.0037    0.0005    0.0010   -0.0003   -0.0011
  S   C    4   -0.0317   -0.0616    0.0128    0.0555   -0.0105    0.0077   -0.0198   -0.0143
  Px  C    4   -0.0778   -0.1372    0.2759   -0.0812   -0.2372   -0.1254    0.0759    0.1814
  Py  C    4   -0.0606   -0.1296    0.0569   -0.0400    0.2312    0.3961   -0.0943   -0.1134
  Pz  C    4   -0.0039   -0.0071    0.0093   -0.0023   -0.0054   -0.0002    0.0015    0.0047
  S   C    5   -0.0550   -0.0982    0.0707    0.0551   -0.0637   -0.0121   -0.0360   -0.0228
  Px  C    5   -0.0352   -0.0538    0.1973   -0.1377   -0.1776   -0.1160    0.1018    0.2026
  Py  C    5    0.2007    0.3356   -0.1114   -0.2189    0.0771   -0.0139    0.1271    0.1539
  Pz  C    5    0.0029    0.0048    0.0005   -0.0041   -0.0017   -0.0012    0.0016    0.0035
  S   C    6    0.0508    0.0754    0.0472   -0.0697   -0.0483   -0.0020   -0.0082    0.0151
  Px  C    6    0.1434    0.1767    0.1773   -0.1431   -0.1355    0.0059   -0.0456    0.0025
  Py  C    6    0.0848    0.1901   -0.1837   -0.1958    0.1561   -0.0590    0.2486    0.2683
  Pz  C    6    0.0010    0.0024   -0.0045   -0.0024    0.0047   -0.0016    0.0063    0.0061
  S   C    7    0.0916    0.0348    0.0734    0.0551    0.0886    0.0618    0.0458   -0.0166
  Px  C    7   -0.1422   -0.1571   -0.1730    0.0164   -0.0165   -0.2151    0.1191    0.1109
  Py  C    7    0.2507    0.0442    0.1048    0.1676    0.1975    0.0241    0.1766    0.0021
  Pz  C    7    0.0061    0.0059    0.0075    0.0001    0.0011    0.0071   -0.0026   -0.0031
  S   C    8    0.0376    0.0489   -0.0559    0.0934   -0.0553   -0.0721   -0.0428   -0.0106
  Px  C    8    0.0435   -0.0289    0.0041    0.2231   -0.0683    0.0875   -0.1855   -0.0235
  Py  C    8   -0.1350   -0.1918    0.1462   -0.1351    0.0934    0.2166    0.0023   -0.0128
  Pz  C    8   -0.0013   -0.0019    0.0027   -0.0021    0.0014    0.0048   -0.0008   -0.0001
  S   C    9    0.0001    0.0348   -0.0319    0.0222   -0.0191   -0.0295   -0.0236   -0.0222
  Px  C    9    0.0636    0.0093   -0.0310    0.3030   -0.1444    0.0196   -0.2227   -0.0364
  Py  C    9    0.0334    0.0459    0.1309    0.1359   -0.0056    0.0636    0.3986   -0.0912
  Pz  C    9    0.0011    0.0005    0.0053    0.0039    0.0001    0.0017    0.0190   -0.0037
  S   C   10    0.0034    0.0329    0.0432    0.0021    0.0204    0.0256    0.0157   -0.0057
  Px  C   10    0.2000    0.0245   -0.0683    0.2051    0.1917   -0.0789   -0.2045    0.0804
  Py  C   10    0.1233   -0.0343    0.0979    0.0835    0.1845    0.0095    0.4145   -0.0012
  Pz  C   10    0.0040    0.0030    0.0044    0.0048    0.0065    0.0014    0.0030    0.0018
  S   C   11   -0.0969    0.0256    0.0783   -0.0784   -0.0274    0.0656    0.0467    0.0112
  Px  C   11    0.1426    0.0483   -0.0006    0.1746    0.1644   -0.0147   -0.1641    0.0932
  Py  C   11   -0.2617    0.1118    0.2028   -0.1124    0.0284    0.1347    0.0245    0.1071
  Pz  C   11    0.0123    0.0004   -0.0047    0.0101    0.0080   -0.0036   -0.0085    0.0028
  S   H   12   -0.1677    0.0390    0.0996   -0.0944   -0.0310    0.0760    0.0644    0.0322
  S   C   13   -0.0403    0.0189   -0.0725   -0.0814   -0.0092   -0.0612   -0.0537   -0.0306
  Px  C   13   -0.0968    0.1212   -0.1287    0.0488   -0.0915   -0.1208    0.0586   -0.2234
  Py  C   13    0.1141    0.0010    0.1173    0.2531   -0.0304    0.0734    0.1719   -0.0255
  Pz  C   13    0.0058    0.0012    0.0040    0.0126   -0.0021    0.0023    0.0082   -0.0027
  S   H   14    0.1612    0.0685    0.0982    0.0633    0.0987    0.0785    0.0532   -0.0311
  S   H   15    0.0596    0.1497   -0.1047   -0.1117    0.0306    0.0127    0.0109    0.0168
  S   H   16   -0.1249   -0.1540   -0.1226    0.0296    0.1230    0.0312    0.0467    0.0269
  S   H   17   -0.1097   -0.1819    0.1193    0.0659   -0.0987   -0.0341   -0.0332   -0.0148
  S   H   18    0.0809    0.0949    0.1150   -0.0779   -0.0855    0.0008   -0.0291   -0.0018
  S   H   19    0.0786    0.0884   -0.0695    0.1136   -0.0698   -0.0884   -0.0510    0.0059
  S   H   20   -0.0839    0.0335   -0.0978   -0.1029   -0.0073   -0.0789   -0.0747   -0.0549
  S   C   21    0.0727   -0.0666   -0.0513   -0.0143   -0.0877    0.0749    0.0416    0.0069
  Px  C   21   -0.1204    0.0294    0.1497   -0.2017    0.0926   -0.1013    0.0637   -0.2835
  Py  C   21    0.2777   -0.2632   -0.0943   -0.1412   -0.1891    0.1477    0.1261   -0.1111
  Pz  C   21    0.0154   -0.0144   -0.0029   -0.0081   -0.0065    0.0046    0.0046   -0.0060
  S   C   22   -0.0481    0.0616   -0.0357    0.0741   -0.0275    0.0244    0.0155    0.0171
  Px  C   22    0.1464   -0.1888    0.1269   -0.1928    0.0849   -0.0635   -0.0414   -0.0314
  Py  C   22    0.1063   -0.1166   -0.1260   -0.0961   -0.2693    0.2118    0.2381   -0.2360
  Pz  C   22   -0.0078    0.0105   -0.0120    0.0108   -0.0140    0.0115    0.0104   -0.0051
  S   C   23   -0.0583    0.0601    0.0445    0.0593    0.0566   -0.0261   -0.0103    0.0066
  Px  C   23    0.1957   -0.2099    0.0164   -0.2271    0.0966   -0.1400   -0.1915    0.1449
  Py  C   23    0.0949   -0.0692   -0.1833   -0.0190   -0.2420    0.1688    0.1580   -0.1179
  Pz  C   23    0.0071   -0.0067   -0.0075   -0.0053   -0.0102    0.0062    0.0053   -0.0044
  S   C   24    0.0803   -0.0798    0.0465   -0.0501    0.0771   -0.0702   -0.0378   -0.0055
  Px  C   24    0.1980   -0.2161   -0.0289   -0.2413    0.0095   -0.0672   -0.1582    0.1551
  Py  C   24   -0.1888    0.1602   -0.1371    0.0006   -0.1766    0.1348   -0.0082    0.1126
  Pz  C   24   -0.0040    0.0024   -0.0053   -0.0045   -0.0056    0.0032   -0.0037    0.0074
  S   H   25    0.1798   -0.1416   -0.0918   -0.0087   -0.1208    0.1042    0.0446    0.0269
  S   H   26   -0.0882    0.1170   -0.0805    0.1202   -0.0543    0.0426    0.0262    0.0196
  S   H   27   -0.1077    0.0987    0.0921    0.0775    0.0969   -0.0472   -0.0239    0.0147
  S   H   28    0.1495   -0.1381    0.0612   -0.0634    0.0928   -0.0909   -0.0392   -0.0201
  S   C   29    0.0098   -0.0336   -0.0050   -0.0528   -0.0385    0.0279    0.0153   -0.0025
  Px  C   29   -0.1812    0.0839    0.2136   -0.1772    0.1857   -0.1636    0.0293   -0.2772
  Py  C   29   -0.1310    0.0973    0.1545    0.0156   -0.0062    0.2972   -0.0375    0.3388
  Pz  C   29   -0.0064    0.0021    0.0062   -0.0048    0.0002    0.0056    0.0016    0.0032
  S   C   30    0.0228   -0.0420   -0.0114   -0.0766    0.0119   -0.0308   -0.0266    0.0023
  Px  C   30   -0.1069    0.1175   -0.2058   -0.0273   -0.1097   -0.1770    0.0013   -0.2315
  Py  C   30   -0.0650    0.0307   -0.0893   -0.0475   -0.1921    0.2781   -0.0622    0.3485
  Pz  C   30   -0.0038    0.0034   -0.0058   -0.0004   -0.0085    0.0093   -0.0024    0.0113


   Root No.      81        82        83        84

                81 ????   11 au      7 bg     10 bu  

                12.559    12.744    13.235    14.583
  
  S   C    1    0.0624   -0.0017   -0.0186    0.0339
  Px  C    1    0.2457   -0.2051   -0.1901    0.0972
  Py  C    1   -0.0026    0.1401    0.0852    0.0177
  Pz  C    1    0.0105   -0.0011   -0.0036    0.0053
  S   C    2   -0.0058    0.0317    0.0179    0.0200
  Px  C    2    0.2890   -0.1889   -0.1912    0.1360
  Py  C    2    0.1485   -0.0277   -0.0509    0.1068
  Pz  C    2    0.0156   -0.0102   -0.0102    0.0071
  S   C    3   -0.0037    0.0023   -0.0170    0.0330
  Px  C    3    0.2276   -0.0898   -0.2778    0.2184
  Py  C    3    0.1782   -0.0607    0.0036    0.0951
  Pz  C    3    0.0036   -0.0017   -0.0009    0.0006
  S   C    4    0.0111    0.0073    0.0148    0.0347
  Px  C    4    0.2246    0.2043    0.0840    0.1911
  Py  C    4    0.1707    0.1127    0.2065    0.1245
  Pz  C    4    0.0089    0.0078    0.0049    0.0070
  S   C    5    0.0183   -0.0186   -0.0160    0.0229
  Px  C    5    0.2090    0.2184    0.0880    0.1574
  Py  C    5    0.0732    0.1708    0.0993    0.0483
  Pz  C    5    0.0043    0.0042    0.0017    0.0034
  S   C    6    0.0687    0.0207    0.0007    0.0357
  Px  C    6    0.1426    0.0138   -0.0156    0.0668
  Py  C    6    0.0390    0.2812    0.1717    0.0515
  Pz  C    6   -0.0013    0.0062    0.0042    0.0002
  S   C    7   -0.0574   -0.0132    0.0205    0.0114
  Px  C    7    0.1901   -0.1007   -0.2740    0.2415
  Py  C    7   -0.0020   -0.1096   -0.1014    0.1540
  Pz  C    7   -0.0048    0.0021    0.0067   -0.0048
  S   C    8   -0.0645   -0.0078   -0.0131    0.0073
  Px  C    8    0.1086    0.2180    0.1939    0.2420
  Py  C    8    0.2025    0.1072    0.1385    0.1201
  Pz  C    8    0.0042    0.0035    0.0041    0.0025
  S   C    9   -0.0548   -0.0174    0.0149    0.0179
  Px  C    9    0.0439    0.1993    0.1959    0.2634
  Py  C    9    0.0504   -0.2736    0.1608    0.1608
  Pz  C    9    0.0024   -0.0133    0.0057    0.0052
  S   C   10   -0.0636    0.0009    0.0016    0.0110
  Px  C   10   -0.0817    0.1653   -0.2502    0.2691
  Py  C   10    0.0849   -0.2737   -0.1024    0.1549
  Pz  C   10   -0.0061   -0.0006   -0.0053    0.0071
  S   C   11   -0.0609   -0.0288    0.0077   -0.0105
  Px  C   11   -0.1588    0.1529   -0.2475    0.2751
  Py  C   11   -0.2082   -0.0101   -0.1333    0.1398
  Pz  C   11   -0.0035    0.0066   -0.0094    0.0104
  S   H   12   -0.0473   -0.0496    0.0006   -0.0061
  S   C   13   -0.0594   -0.0021    0.0111   -0.0071
  Px  C   13   -0.0998   -0.1102    0.2829    0.2756
  Py  C   13    0.0602   -0.1034    0.1306    0.1686
  Pz  C   13    0.0015   -0.0058    0.0078    0.0098
  S   H   14   -0.0437   -0.0272    0.0295    0.0017
  S   H   15    0.0742    0.0100   -0.0122    0.0358
  S   H   16   -0.0099    0.0363    0.0301    0.0099
  S   H   17    0.0212   -0.0210   -0.0250    0.0169
  S   H   18    0.0774    0.0028   -0.0121    0.0336
  S   H   19   -0.0626    0.0088   -0.0208   -0.0000
  S   H   20   -0.0462    0.0297    0.0141   -0.0051
  S   C   21   -0.0023    0.0128   -0.0173   -0.0244
  Px  C   21   -0.2243    0.1625   -0.1009    0.1722
  Py  C   21   -0.1282    0.1207   -0.1098    0.0483
  Pz  C   21   -0.0071    0.0054   -0.0046    0.0037
  S   C   22    0.0518    0.0015    0.0007   -0.0366
  Px  C   22   -0.1125   -0.0129    0.0060    0.0766
  Py  C   22   -0.1604    0.2331   -0.1884    0.0614
  Pz  C   22    0.0016    0.0084   -0.0069   -0.0019
  S   C   23    0.0607    0.0171   -0.0146   -0.0421
  Px  C   23   -0.1206   -0.2390    0.1919    0.1151
  Py  C   23   -0.0802    0.1198   -0.0945    0.0278
  Pz  C   23   -0.0064    0.0027   -0.0021    0.0034
  S   C   24    0.0287   -0.0032    0.0066   -0.0343
  Px  C   24   -0.1808   -0.2541    0.1971    0.1648
  Py  C   24   -0.1658   -0.1229    0.0721    0.1472
  Pz  C   24   -0.0092   -0.0095    0.0064    0.0081
  S   H   25   -0.0038    0.0134   -0.0270   -0.0180
  S   H   26    0.0634    0.0100   -0.0073   -0.0405
  S   H   27    0.0738    0.0080   -0.0054   -0.0424
  S   H   28    0.0303   -0.0080    0.0213   -0.0209
  S   C   29   -0.0078   -0.0079    0.0153   -0.0289
  Px  C   29   -0.2199    0.1527   -0.1021    0.2073
  Py  C   29   -0.2112   -0.0416   -0.2014    0.1478
  Pz  C   29   -0.0071    0.0000   -0.0047    0.0044
  S   C   30   -0.0162   -0.0078   -0.0042   -0.0255
  Px  C   30   -0.1410   -0.1144    0.2832    0.2494
  Py  C   30   -0.1988   -0.1986    0.0230    0.1382
  Pz  C   30   -0.0090   -0.0086    0.0037    0.0086


              NET ATOMIC CHARGES AND DIPOLE CONTRIBUTIONS

  ATOM NO.   TYPE          CHARGE      No. of ELECS.   s-Pop       p-Pop       
    1          C          -0.021078        4.0211     1.08980     2.93128
    2          C          -0.031150        4.0312     1.10255     2.92860
    3          C           0.006673        3.9933     1.07967     2.91365
    4          C           0.011895        3.9881     1.07635     2.91175
    5          C          -0.035607        4.0356     1.11113     2.92448
    6          C          -0.032898        4.0329     1.10103     2.93187
    7          C          -0.030221        4.0302     1.09618     2.93404
    8          C          -0.030071        4.0301     1.09928     2.93079
    9          C           0.007204        3.9928     1.06481     2.92798
   10          C           0.012252        3.9877     1.05954     2.92821
   11          C          -0.035978        4.0360     1.09604     2.93994
   12          H           0.017698        0.9823     0.98230
   13          C          -0.033926        4.0339     1.09120     2.94273
   14          H           0.027115        0.9729     0.97289
   15          H           0.020733        0.9793     0.97927
   16          H           0.029750        0.9702     0.97025
   17          H           0.026333        0.9737     0.97367
   18          H           0.032870        0.9671     0.96713
   19          H           0.028903        0.9711     0.97110
   20          H           0.014760        0.9852     0.98524
   21          C          -0.040614        4.0406     1.10576     2.93486
   22          C          -0.026686        4.0267     1.09420     2.93249
   23          C          -0.031591        4.0316     1.09407     2.93752
   24          C          -0.023395        4.0234     1.09380     2.92960
   25          H           0.034072        0.9659     0.96593
   26          H           0.023919        0.9761     0.97608
   27          H           0.029096        0.9709     0.97090
   28          H           0.020177        0.9798     0.97982
   29          C           0.010450        3.9896     1.06899     2.92056
   30          C           0.019316        3.9807     1.04878     2.93191
 DIPOLE           X         Y         Z       TOTAL
 POINT-CHG.    -0.109    -0.079    -0.045     0.142
 HYBRID         0.076     0.125    -0.164     0.220
 SUM           -0.033     0.045    -0.208     0.216


          ATOMIC ORBITAL ELECTRON POPULATIONS

     Atom    s        px        py        pz   
    1  C   1.08980   0.97475   0.95489   1.00163
    2  C   1.10255   0.97186   0.95172   1.00502
    3  C   1.07967   0.96923   0.95802   0.98640
    4  C   1.07635   0.95829   0.96744   0.98602
    5  C   1.11113   0.96182   0.96224   1.00042
    6  C   1.10103   0.94332   0.98909   0.99946
    7  C   1.09618   0.96690   0.95496   1.01218
    8  C   1.09928   0.96964   0.94878   1.01238
    9  C   1.06481   0.96642   0.97787   0.98369
   10  C   1.05954   0.97697   0.97310   0.97814
   11  C   1.09604   0.96872   0.95222   1.01900
   12  H   0.98230
   13  C   1.09120   0.96711   0.95767   1.01795
   14  H   0.97289
   15  H   0.97927
   16  H   0.97025
   17  H   0.97367
   18  H   0.96713
   19  H   0.97110
   20  H   0.98524
   21  C   1.10576   0.97027   0.95812   1.00647
   22  C   1.09420   0.95315   0.98470   0.99464
   23  C   1.09407   0.98480   0.94881   1.00390
   24  C   1.09380   0.97821   0.95123   1.00016
   25  H   0.96593
   26  H   0.97608
   27  H   0.97090
   28  H   0.97982
   29  C   1.06899   0.96461   0.97695   0.97899
   30  C   1.04878   0.97392   0.97146   0.98653

 **********************
 *                    *
 * JOB ENDED NORMALLY *
 *                    *
 **********************



 TOTAL JOB TIME:             3.33 SECONDS

 == MOPAC DONE ==


          MOPAC Job: "./tetraceneTraj/tetracene_274.mop" ended normally on Feb 15, 2023, at 11:22.

rm: cannot remove ./tetraceneTraj/tetracene_274.cim: No such file or directory
rm: cannot remove ./tetraceneTraj/tetracene_274.end: No such file or directory
rm: cannot remove ./tetraceneTraj/tetracene_274.log: No such file or directory
rm: cannot remove ./tetraceneTraj/tetracene_274.temp: No such file or directory
rm: cannot remove ./tetraceneTraj/tetracene_274.ple: No such file or directory
rm: cannot remove ./tetraceneTraj/tetracene_274.sts: No such file or directory
