 *******************************************************************************
 ** Site#:    0         For non-commercial use only    Version 20.173L 64BITS **
 *******************************************************************************
 ** Cite this program as: MOPAC2016, Version: 20.173L, James J. P. Stewart,   **
 ** Stewart Computational Chemistry, web-site: HTTP://OpenMOPAC.net.          **
 *******************************************************************************
 **                                                                           **
 **                                MOPAC2016                                  **
 **                                                                           **
 *******************************************************************************

                              INDO CALCULATION RESULTS

 *******************************************************************************
 *  CALCULATION DONE:                                Wed Feb 15 11:23:42 2023  *
 *  INDO       - The INDO Hamiltonian to be used
 *
 *
 *
 *                 CHARGE ON SYSTEM = 0
 *
 *
 *
 *  C.I.=(N,M) - 3 DOUBLY FILLED LEVELS USED IN A C.I. INVOLVING 6 M.O.'S
 *  T=         - A TIME OF 172800.0 SECONDS REQUESTED
 *  DUMP=N     - RESTART FILE WRITTEN EVERY 7200.0 SECONDS REQUESTED
 *  RELSCF     - DEFAULT SCF CRITERION MULTIPLIED BY 0.0000
 *              (DEFAULT SCF CRITERION = 0.00010)
 *  ALLVEC     - PRINT ALL EIGENVECTORS
 **********
 *  WARNING: Specified print options may not behave as expected with INDO
 **********
 *******************************************************************************
INDO C.I.=(6,3) AllVEC CHARGE=0 RELSCF=0.000001


   ATOM   CHEMICAL          X               Y               Z
  NUMBER   SYMBOL      (ANGSTROMS)     (ANGSTROMS)     (ANGSTROMS)
 
     1       C         18.53981352  *  19.47489302  *  22.40053568  *
     2       C         19.94682669  *  19.45057102  *  22.40622576  *
     3       C         20.71942068  *  20.69169264  *  22.44691190  *
     4       C         19.95910370  *  21.96948954  *  22.45214583  *
     5       C         18.51032748  *  21.91016246  *  22.45943499  *
     6       C         17.82139036  *  20.71935207  *  22.40211375  *
     7       C         22.12406779  *  20.64742055  *  22.42346988  *
     8       C         20.71639082  *  23.16102219  *  22.53120011  *
     9       C         22.13497270  *  23.15144664  *  22.52296207  *
    10       C         22.86393458  *  21.82866968  *  22.44222765  *
    11       C         24.26024625  *  21.91194649  *  22.50174118  *
    12       H         24.79612093  *  20.96273389  *  22.55563440  *
    13       C         22.89421719  *  24.32521369  *  22.54241325  *
    14       H         22.61869158  *  19.64335860  *  22.33617785  *
    15       H         18.01050420  *  18.48219835  *  22.35116780  *
    16       H         20.48031320  *  18.53356183  *  22.37314433  *
    17       H         17.99067973  *  22.86757671  *  22.40150933  *
    18       H         16.71322774  *  20.63759091  *  22.28770461  *
    19       H         20.14022860  *  24.11993533  *  22.48068070  *
    20       H         22.33323772  *  25.25391800  *  22.59792654  *
    21       C         26.46253596  *  23.02605435  *  22.55036914  *
    22       C         27.18365237  *  24.22486415  *  22.58023379  *
    23       C         26.47732098  *  25.50705820  *  22.60673175  *
    24       C         25.06851616  *  25.56963739  *  22.68579193  *
    25       H         26.94747982  *  22.01966953  *  22.50667717  *
    26       H         28.25075920  *  24.19157691  *  22.58266595  *
    27       H         27.05462020  *  26.41408823  *  22.55408732  *
    28       H         24.66400965  *  26.58844821  *  22.74313723  *
    29       C         25.00863206  *  23.10250912  *  22.49913616  *
    30       C         24.30864147  *  24.35196370  *  22.56562712  *
 


          CARTESIAN COORDINATES 

    NO.       ATOM           X           Y           Z

     1         C         18.5398     19.4749     22.4005
     2         C         19.9468     19.4506     22.4062
     3         C         20.7194     20.6917     22.4469
     4         C         19.9591     21.9695     22.4521
     5         C         18.5103     21.9102     22.4594
     6         C         17.8214     20.7194     22.4021
     7         C         22.1241     20.6474     22.4235
     8         C         20.7164     23.1610     22.5312
     9         C         22.1350     23.1514     22.5230
    10         C         22.8639     21.8287     22.4422
    11         C         24.2602     21.9119     22.5017
    12         H         24.7961     20.9627     22.5556
    13         C         22.8942     24.3252     22.5424
    14         H         22.6187     19.6434     22.3362
    15         H         18.0105     18.4822     22.3512
    16         H         20.4803     18.5336     22.3731
    17         H         17.9907     22.8676     22.4015
    18         H         16.7132     20.6376     22.2877
    19         H         20.1402     24.1199     22.4807
    20         H         22.3332     25.2539     22.5979
    21         C         26.4625     23.0261     22.5504
    22         C         27.1837     24.2249     22.5802
    23         C         26.4773     25.5071     22.6067
    24         C         25.0685     25.5696     22.6858
    25         H         26.9475     22.0197     22.5067
    26         H         28.2508     24.1916     22.5827
    27         H         27.0546     26.4141     22.5541
    28         H         24.6640     26.5884     22.7431
    29         C         25.0086     23.1025     22.4991
    30         C         24.3086     24.3520     22.5656

           Empirical Formula: C18 H12  =    30 atoms



      MOLECULAR POINT GROUP   :   C2  


      RHF CALCULATION, NO. OF DOUBLY OCCUPIED LEVELS = 42

 WARNING: INDO only performs single-point calculations
  SCF CRITERION =    0.1000E-09

 Summary of symmetry occupancy in each shell:

 SHELL     
    1   42
    v   42
 TOTAL  84




    ROOT NO.    1           2           3           4           5           6

           -44.85743   -43.04343   -40.42281   -37.04512   -35.90250   -34.21315
  
  
  S  C   1   0.09686     0.22410    -0.26028     0.24644    -0.07429     0.12683
 PX  C   1   0.02567     0.05095    -0.04069     0.00429    -0.04474     0.08502
 PY  C   1   0.03600     0.07988    -0.08507     0.06903     0.01703    -0.04299
 PZ  C   1   0.00036     0.00062    -0.00029    -0.00053     0.00045    -0.00079
  
  S  C   2   0.12750     0.24977    -0.21195     0.09555    -0.18064     0.29308
 PX  C   2  -0.00064    -0.02685     0.07192    -0.11312    -0.03645     0.03818
 PY  C   2   0.05032     0.08963    -0.05827    -0.00023    -0.01431     0.01173
 PZ  C   2   0.00085     0.00140    -0.00067    -0.00065     0.00007    -0.00018
  
  S  C   3   0.23829     0.32270    -0.06692    -0.18748    -0.15841     0.20030
 PX  C   3   0.01136    -0.05065     0.13604    -0.14068    -0.07389     0.05490
 PY  C   3   0.04908     0.02957     0.06031    -0.09070     0.10166    -0.14328
 PZ  C   3  -0.00094    -0.00244     0.00234    -0.00040     0.00462    -0.00600
  
  S  C   4   0.23158     0.31997    -0.08038    -0.14777     0.18800    -0.22242
 PX  C   4   0.04851     0.00141     0.12198    -0.16183    -0.02065     0.07317
 PY  C   4  -0.02037    -0.06312     0.08214    -0.05511     0.11226    -0.11352
 PZ  C   4   0.00214     0.00160     0.00246    -0.00498     0.00511    -0.00513
  
  S  C   5   0.12590     0.25218    -0.22649     0.14060     0.15979    -0.27546
 PX  C   5   0.04152     0.06242    -0.01580    -0.05023     0.03869    -0.03557
 PY  C   5  -0.02788    -0.07158     0.09317    -0.09526     0.03279    -0.03024
 PZ  C   5  -0.00176    -0.00432     0.00540    -0.00549    -0.00149     0.00380
  
  S  C   6   0.09727     0.22652    -0.26656     0.26401     0.04092    -0.10555
 PX  C   6   0.04421     0.09536    -0.09518     0.06356     0.00316    -0.00656
 PY  C   6   0.00416     0.00517     0.00343    -0.01799     0.04900    -0.09408
 PZ  C   6   0.00073     0.00144    -0.00106    -0.00013     0.00084    -0.00145
  
  S  C   7   0.22557     0.16859     0.14554    -0.25139    -0.29572     0.18197
 PX  C   7  -0.02325    -0.07586     0.04047     0.07938    -0.02471    -0.07740
 PY  C   7   0.07887     0.02757     0.08650    -0.06340    -0.00195    -0.04917
 PZ  C   7   0.00249     0.00052     0.00268    -0.00127     0.00104    -0.00226
  
  S  C   8   0.21958     0.16443     0.13750    -0.20758     0.32457    -0.19647
 PX  C   8   0.05286    -0.01698     0.09292    -0.01081     0.01916     0.07700
 PY  C   8  -0.06037    -0.07860    -0.00960     0.09971     0.00978     0.04627
 PZ  C   8  -0.00524    -0.00532    -0.00236     0.00689    -0.00597     0.00622
  
  S  C   9   0.33065     0.03371     0.28795     0.00240     0.23733    -0.00047
 PX  C   9   0.04125    -0.08836     0.02473     0.18240    -0.08383     0.06851
 PY  C   9  -0.04014    -0.05490    -0.03651     0.11049     0.13151     0.04116
 PZ  C   9  -0.00356    -0.00233    -0.00344     0.00385     0.00269     0.00187
  
  S  C  10   0.33249     0.03671     0.29084    -0.02676    -0.22930    -0.00583
 PX  C  10  -0.01387    -0.09375    -0.01952     0.18562    -0.08208    -0.05914
 PY  C  10   0.05505    -0.04759     0.03858     0.11430     0.12588    -0.03178
 PZ  C  10   0.00801    -0.00168     0.00674     0.00467    -0.00081    -0.00216
  
  S  C  11   0.26856    -0.12387     0.14448     0.20904    -0.31647    -0.19118
 PX  C  11  -0.05042    -0.03082    -0.09971    -0.00582     0.00754    -0.07968
 PY  C  11   0.07755    -0.06856     0.00443     0.10033     0.02321    -0.02852
 PZ  C  11  -0.00029    -0.00122    -0.00255    -0.00032     0.00248    -0.00070
  
  S  H  12   0.08380    -0.03733     0.04197     0.05255    -0.16627    -0.10177
  
  S  C  13   0.26147    -0.11781     0.14612     0.22809     0.30085     0.19547
 PX  C  13   0.03930    -0.07196    -0.04417     0.07745    -0.03565     0.07455
 PY  C  13  -0.08475     0.01180    -0.08508    -0.05951     0.00061     0.04231
 PZ  C  13  -0.00010    -0.00141    -0.00193     0.00075     0.00352     0.00476
  
  S  H  14   0.06669     0.05081     0.03773    -0.07075    -0.14880     0.09369
  
  S  H  15   0.02366     0.05813    -0.07500     0.08403    -0.03168     0.05868
  
  S  H  16   0.04145     0.07758    -0.05989     0.01684    -0.09594     0.15277
  
  S  H  17   0.03903     0.07521    -0.06330     0.03654     0.08593    -0.14098
  
  S  H  18   0.02387     0.05937    -0.07834     0.09327     0.01591    -0.04337
  
  S  H  19   0.06522     0.04872     0.03618    -0.05021     0.15718    -0.09481
  
  S  H  20   0.08056    -0.03285     0.04499     0.06228     0.16065     0.09369
  
  S  C  21   0.16472    -0.21276    -0.22035    -0.12597    -0.16658    -0.28557
 PX  C  21  -0.05610     0.05461     0.01554    -0.05373     0.04332     0.03546
 PY  C  21   0.03957    -0.06494    -0.09679    -0.09514     0.02900     0.01755
 PZ  C  21  -0.00045     0.00025    -0.00062    -0.00187     0.00314     0.00433
  
  S  C  22   0.12684    -0.19188    -0.26486    -0.25938    -0.04506    -0.12799
 PX  C  22  -0.05789     0.08088     0.09393     0.06023     0.00436     0.00932
 PY  C  22  -0.00455     0.00295    -0.00577    -0.02210     0.04950     0.09196
 PZ  C  22  -0.00029     0.00034     0.00016    -0.00041     0.00175     0.00330
  
  S  C  23   0.12744    -0.19290    -0.26651    -0.25907     0.07399     0.11184
 PX  C  23  -0.03523     0.04642     0.04638     0.01286    -0.04433    -0.08533
 PY  C  23  -0.04598     0.06590     0.08111     0.06199     0.01802     0.04772
 PZ  C  23  -0.00009     0.00005    -0.00015    -0.00035     0.00161     0.00343
  
  S  C  24   0.16296    -0.21186    -0.22260    -0.12487     0.17456     0.28024
 PX  C  24   0.00397    -0.02548    -0.07138    -0.10749    -0.03029    -0.03491
 PY  C  24  -0.06838     0.08027     0.06357     0.00270    -0.01948    -0.02091
 PZ  C  24  -0.00760     0.00979     0.00979     0.00433    -0.00569    -0.00860
  
  S  H  25   0.04910    -0.06008    -0.05651    -0.02724    -0.08678    -0.13897
  
  S  H  26   0.03314    -0.05335    -0.08213    -0.09610    -0.02049    -0.05965
  
  S  H  27   0.03315    -0.05349    -0.08259    -0.09605     0.03162     0.05198
  
  S  H  28   0.04599    -0.05952    -0.06322    -0.03780     0.08205     0.13308
  
  S  C  29   0.30567    -0.27838    -0.08878     0.15071    -0.17257    -0.19391
 PX  C  29  -0.05625    -0.00578    -0.12618    -0.16237    -0.03166    -0.09008
 PY  C  29   0.02801    -0.05605    -0.08551    -0.05877     0.12327     0.13050
 PZ  C  29   0.00668    -0.00769    -0.00589    -0.00019     0.00007    -0.00037
  
  S  C  30   0.30066    -0.27317    -0.08582     0.15775     0.16391     0.22111
 PX  C  30  -0.00180    -0.05423    -0.14009    -0.13799    -0.06921    -0.05557
 PY  C  30  -0.06643     0.02888    -0.05953    -0.10406     0.09065     0.12421
 PZ  C  30  -0.00144    -0.00076    -0.00482    -0.00565     0.00451     0.00686




    ROOT NO.    7           8           9          10          11          12

           -31.90298   -31.44287   -28.82573   -28.31115   -27.04680   -26.11861
  
  
  S  C   1   0.13696     0.26782    -0.21947     0.23406    -0.04948     0.20014
 PX  C   1   0.11281    -0.07552    -0.10152    -0.17085     0.01816     0.07844
 PY  C   1  -0.07079     0.02550     0.09948     0.00917    -0.05043    -0.13493
 PZ  C   1  -0.00071    -0.00329     0.00171    -0.00543    -0.00118    -0.00263
  
  S  C   2   0.28801    -0.02883    -0.17564    -0.15369     0.09824     0.06906
 PX  C   2  -0.00813    -0.13602     0.14400    -0.09766     0.08978    -0.17788
 PY  C   2  -0.00985    -0.07565     0.07721    -0.07802    -0.07508    -0.13391
 PZ  C   2  -0.00026    -0.00311     0.00188    -0.00367    -0.00239    -0.00393
  
  S  C   3   0.10548    -0.23487     0.11434    -0.10227    -0.08126    -0.20340
 PX  C   3  -0.05475     0.03231     0.13242     0.16051     0.08770    -0.05037
 PY  C   3  -0.09520    -0.01234    -0.02576     0.10392    -0.18922     0.06410
 PZ  C   3  -0.00259     0.00160    -0.00401     0.00257    -0.00527     0.00437
  
  S  C   4  -0.06103    -0.25840    -0.10369    -0.12434    -0.11207     0.15372
 PX  C   4   0.10438     0.01280    -0.07063     0.17091    -0.11868    -0.05950
 PY  C   4  -0.00805     0.02251    -0.11294     0.07437     0.14295     0.15612
 PZ  C   4   0.00081    -0.00328    -0.00767     0.00180    -0.00127     0.00764
  
  S  C   5  -0.27096    -0.06163     0.19056    -0.14803     0.12871    -0.01764
 PX  C   5   0.03574    -0.13735    -0.12140    -0.13528    -0.06308     0.16198
 PY  C   5   0.01716    -0.08572    -0.06869    -0.05868     0.08630     0.13622
 PZ  C   5   0.00645    -0.00342    -0.00839    -0.00099    -0.00377     0.00681
  
  S  C   6  -0.18113     0.25533     0.18688     0.25547     0.00868    -0.19110
 PX  C   6   0.00242    -0.01796    -0.02483    -0.08716    -0.04438     0.03775
 PY  C   6  -0.11294    -0.09176     0.14626    -0.14425     0.07996    -0.09973
 PZ  C   6  -0.00097    -0.00438     0.00067    -0.00840    -0.00085     0.00081
  
  S  C   7  -0.14672    -0.00169     0.24038     0.12021     0.17754     0.01208
 PX  C   7  -0.13301     0.13604    -0.05620     0.00422     0.09159     0.21370
 PY  C   7  -0.08297     0.08105    -0.02710     0.09667    -0.15668     0.08158
 PZ  C   7  -0.00114     0.00194    -0.00312     0.00172    -0.00835     0.00058
  
  S  C   8   0.14817     0.00575    -0.23988     0.12036     0.15589     0.06094
 PX  C   8   0.10480     0.16338     0.03862     0.09454    -0.03762    -0.20837
 PY  C   8   0.05944     0.08728     0.03126    -0.03794     0.18892    -0.07118
 PZ  C   8   0.00002     0.00353     0.00579    -0.00268     0.00052    -0.00574
  
  S  C   9   0.18591     0.25977    -0.01650     0.01485    -0.05368    -0.18541
 PX  C   9  -0.07040     0.01442     0.11296    -0.17774    -0.12353     0.03206
 PY  C   9   0.13613    -0.00037     0.05949    -0.09668     0.22972    -0.07950
 PZ  C   9   0.00324    -0.00215     0.00207    -0.00253     0.00998    -0.00118
  
  S  C  10  -0.24187     0.22595    -0.00152    -0.00146    -0.08809     0.16983
 PX  C  10  -0.06403    -0.00944    -0.10778    -0.18872     0.10687     0.07834
 PY  C  10   0.11588     0.03056    -0.06811    -0.09344    -0.20977    -0.13129
 PZ  C  10  -0.00158     0.00541    -0.00454    -0.00470    -0.00836    -0.00030
  
  S  C  11  -0.14201    -0.00281    -0.23506    -0.13799     0.15676    -0.00445
 PX  C  11   0.13519    -0.14830    -0.05297     0.09061     0.10443    -0.19201
 PY  C  11   0.08044    -0.08308    -0.01765    -0.02397    -0.17939    -0.13572
 PZ  C  11   0.00444    -0.00421    -0.00024     0.00366    -0.00014    -0.00549
  
  S  H  12  -0.06865    -0.00211    -0.11677    -0.02889     0.21454     0.01305
  
  S  C  13   0.15661     0.04034     0.23095    -0.11980     0.17268     0.01869
 PX  C  13  -0.11318    -0.16259     0.06101     0.00870    -0.14739     0.18177
 PY  C  13  -0.05233    -0.08874     0.03287     0.08011     0.15091     0.12259
 PZ  C  13  -0.00084    -0.00383     0.00424     0.00285     0.00905     0.00592
  
  S  H  14  -0.05832    -0.00814     0.11093     0.00751     0.20487     0.02086
  
  S  H  15   0.07042     0.13553    -0.12978     0.15595    -0.00329     0.14928
  
  S  H  16   0.14503    -0.01624    -0.08224    -0.06797     0.12372     0.05253
  
  S  H  17  -0.13197    -0.03551     0.08988    -0.06634     0.13452     0.01921
  
  S  H  18  -0.08428     0.13646     0.09990     0.18186     0.02648    -0.11409
  
  S  H  19   0.06719    -0.00260    -0.10692     0.01020     0.19523     0.05988
  
  S  H  20   0.08379     0.02364     0.10689    -0.02185     0.22068     0.01757
  
  S  C  21   0.28605    -0.00293     0.15609     0.13465     0.13125     0.02883
 PX  C  21   0.01349     0.14711     0.13253    -0.12909    -0.00562     0.18014
 PY  C  21   0.01483     0.07401     0.08681    -0.02656    -0.12026     0.10481
 PZ  C  21  -0.00316     0.00373     0.00198    -0.00395    -0.00505     0.00551
  
  S  C  22   0.15579     0.28943     0.20963    -0.23189    -0.07234     0.18467
 PX  C  22  -0.00004     0.02890     0.02871    -0.09846     0.01980     0.05256
 PY  C  22  -0.12915     0.06272    -0.13061    -0.13119    -0.06184    -0.11413
 PZ  C  22  -0.00445     0.00162    -0.00398    -0.00325    -0.00135    -0.00230
  
  S  C  23  -0.18593     0.24582    -0.20364    -0.23941    -0.01678    -0.20217
 PX  C  23   0.10373     0.09553     0.10346    -0.16063    -0.05992     0.05107
 PY  C  23  -0.07404    -0.02749    -0.11108    -0.01627     0.08295    -0.11863
 PZ  C  23  -0.00530    -0.00108    -0.00666     0.00281     0.00407    -0.00479
  
  S  C  24  -0.28643    -0.06320    -0.17784     0.11974     0.14382    -0.02060
 PX  C  24  -0.04116     0.12462    -0.13954    -0.09106    -0.04679    -0.19147
 PY  C  24  -0.02013     0.08212    -0.08624    -0.09864     0.09305    -0.11875
 PZ  C  24   0.00684     0.00506     0.00058    -0.00695     0.00324    -0.00422
  
  S  H  25   0.13145    -0.00300     0.06031     0.04729     0.13581     0.00473
  
  S  H  26   0.07993     0.15953     0.12565    -0.17275    -0.02474     0.13016
  
  S  H  27  -0.09610     0.13748    -0.12508    -0.17903     0.01352    -0.14857
  
  S  H  28  -0.14070    -0.01464    -0.10350     0.02679     0.13800    -0.03487
  
  S  C  29   0.10442    -0.24610    -0.09771     0.12490    -0.07119    -0.17385
 PX  C  29   0.10554     0.01228     0.04185     0.15756     0.14105    -0.03423
 PY  C  29  -0.01735    -0.03489     0.12809     0.08879    -0.17319     0.12739
 PZ  C  29   0.00182    -0.00719     0.00096     0.00824    -0.00357    -0.00053
  
  S  C  30  -0.06988    -0.25463     0.12641     0.12035    -0.10304     0.18774
 PX  C  30  -0.05247    -0.04381    -0.12618     0.15792    -0.06070    -0.06141
 PY  C  30  -0.09554     0.01321     0.00947     0.08059     0.18786     0.11515
 PZ  C  30  -0.00612    -0.00198    -0.00106     0.00869     0.01154     0.00674




    ROOT NO.   13          14          15          16          17          18

           -25.26673   -24.01303   -22.85035   -21.56332   -20.60903   -19.35890
  
  
  S  C   1  -0.01766     0.11672     0.00183    -0.17946    -0.06341     0.01598
 PX  C   1   0.01604    -0.22951     0.00425    -0.01642     0.21077     0.17846
 PY  C   1  -0.13259    -0.00452    -0.18290     0.13773    -0.11620     0.17973
 PZ  C   1  -0.00418    -0.00658    -0.00615     0.00276     0.00194     0.01278
  
  S  C   2   0.15219    -0.16515     0.10351     0.11557     0.12867     0.00797
 PX  C   2   0.10262     0.04724     0.05744     0.20093    -0.10238    -0.17208
 PY  C   2  -0.17640    -0.00065    -0.19630     0.08953    -0.14968     0.07104
 PZ  C   2  -0.00551    -0.00149    -0.00590     0.00448    -0.00301     0.00266
  
  S  C   3  -0.11590     0.09667    -0.02269     0.09881    -0.03941    -0.15016
 PX  C   3   0.16701     0.14645     0.14702    -0.10769    -0.01272     0.00804
 PY  C   3  -0.19512     0.07149    -0.00620    -0.14666     0.12945    -0.07031
 PZ  C   3  -0.00506    -0.00001     0.00060    -0.00015     0.00596    -0.00395
  
  S  C   4  -0.12845     0.09630    -0.01808    -0.09037    -0.07610    -0.15716
 PX  C   4  -0.08069     0.15505     0.05224     0.15944     0.13283    -0.07684
 PY  C   4   0.23344     0.10254     0.12867     0.03068    -0.08129     0.02353
 PZ  C   4   0.00026     0.00656     0.00172     0.00313    -0.00170    -0.00246
  
  S  C   5   0.16212    -0.17559     0.11621    -0.12207     0.11257     0.02735
 PX  C   5  -0.12523     0.01171    -0.13275    -0.15070    -0.22304    -0.01996
 PY  C   5   0.15893     0.03272     0.15477    -0.11044    -0.03852    -0.18131
 PZ  C   5  -0.00563     0.00408    -0.00529    -0.00260    -0.00788     0.00194
  
  S  C   6   0.01715     0.13200     0.00130     0.17855    -0.02252    -0.01415
 PX  C   6  -0.11171    -0.13573    -0.14832    -0.11559    -0.00659     0.27779
 PY  C   6   0.10253    -0.19735     0.09778     0.04140     0.26358     0.06671
 PZ  C   6  -0.00407    -0.01224    -0.00653    -0.00676     0.00638     0.02246
  
  S  C   7   0.11991     0.10079    -0.06402    -0.20416    -0.09751     0.16037
 PX  C   7  -0.00736    -0.13263    -0.16166    -0.07631    -0.00254     0.14711
 PY  C   7  -0.12192    -0.09250     0.04595    -0.06687     0.21694    -0.01346
 PZ  C   7  -0.00633    -0.00319     0.00524     0.00551     0.01245    -0.01163
  
  S  C   8   0.13847     0.10986    -0.06937     0.21307    -0.04819     0.16118
 PX  C   8  -0.07125    -0.16531    -0.05077     0.04639     0.20627     0.09112
 PY  C   8   0.08472    -0.07215    -0.15665     0.05156    -0.10419     0.15339
 PZ  C   8  -0.00461    -0.00634    -0.00542    -0.00106     0.00442     0.00027
  
  S  C   9   0.02081    -0.23152     0.03611     0.01023     0.00357     0.01177
 PX  C   9  -0.00465    -0.04579     0.11949    -0.15386    -0.19066    -0.17039
 PY  C   9   0.00562     0.06269    -0.20720    -0.08130    -0.11157    -0.06138
 PZ  C   9  -0.00281     0.00398    -0.01038     0.00090     0.00276    -0.00393
  
  S  C  10  -0.01731    -0.21459     0.02497    -0.00421     0.00052    -0.01324
 PX  C  10  -0.00329     0.03561    -0.12731     0.20407    -0.14790    -0.15033
 PY  C  10   0.01897    -0.08151     0.20852     0.12008    -0.07312    -0.09950
 PZ  C  10  -0.00250    -0.00707     0.00612     0.01145     0.00291    -0.01407
  
  S  C  11  -0.10397     0.10747    -0.07637     0.20130     0.08363    -0.12807
 PX  C  11  -0.06015     0.16491     0.03962    -0.09118     0.19097     0.08800
 PY  C  11   0.09900     0.07110     0.17097    -0.05806    -0.09863     0.14035
 PZ  C  11  -0.00151     0.00314     0.00094    -0.00059     0.01077    -0.00374
  
  S  H  12  -0.12912     0.06857    -0.12091     0.09906     0.16160    -0.11806
  
  S  C  13  -0.13601     0.09789    -0.05893    -0.20604     0.03637    -0.15591
 PX  C  13  -0.00062     0.16022     0.17068     0.06347     0.03513     0.13505
 PY  C  13  -0.12688     0.11035    -0.05515    -0.00062     0.21802    -0.02555
 PZ  C  13  -0.00873     0.00434    -0.00291     0.00158     0.01266    -0.00355
  
  S  H  14   0.13128     0.06563    -0.10293    -0.07811    -0.17910     0.13567
  
  S  H  15   0.05854     0.13098     0.10630    -0.17105    -0.03145    -0.17434
  
  S  H  16   0.21187    -0.06984     0.18320     0.07268     0.11770    -0.09726
  
  S  H  17   0.21231    -0.07379     0.18940    -0.07485     0.10584    -0.08894
  
  S  H  18   0.07199     0.16398     0.09364     0.16941    -0.02205    -0.22139
  
  S  H  19   0.14087     0.06938    -0.10344     0.11312    -0.15502     0.14121
  
  S  H  20  -0.13707     0.06070    -0.11989    -0.12006     0.13112    -0.14130
  
  S  C  21  -0.17665    -0.16554     0.15106    -0.10331    -0.12809    -0.02549
 PX  C  21  -0.10306    -0.00331     0.14648     0.17555    -0.16423     0.01745
 PY  C  21   0.14139    -0.06191    -0.16287     0.09156    -0.03709    -0.14575
 PZ  C  21   0.00466    -0.00038    -0.00505     0.00990    -0.00189    -0.00719
  
  S  C  22  -0.00080     0.12200    -0.00715     0.15312     0.05117     0.00828
 PX  C  22  -0.09145     0.15729     0.16029     0.11427     0.03573     0.25757
 PY  C  22   0.12298     0.18568    -0.14459    -0.08357     0.23793     0.00671
 PZ  C  22   0.00252     0.00267    -0.00318     0.00258     0.00280    -0.00389
  
  S  C  23   0.05307     0.12982    -0.03065    -0.16994     0.03860    -0.03135
 PX  C  23   0.03706     0.23883    -0.02867    -0.05062     0.20906     0.12486
 PY  C  23  -0.11491     0.03593     0.20269    -0.10452    -0.11487     0.17809
 PZ  C  23  -0.00452    -0.00932     0.00587     0.00441    -0.01365    -0.00730
  
  S  C  24  -0.16605    -0.15557     0.13932     0.14280    -0.09053     0.00657
 PX  C  24   0.10402    -0.05317    -0.06018    -0.14545    -0.14837    -0.12761
 PY  C  24  -0.14396     0.02698     0.21947    -0.06435    -0.15519     0.08380
 PZ  C  24  -0.00720     0.00286     0.01225     0.00028    -0.00786     0.00416
  
  S  H  25  -0.20041    -0.04789     0.21135    -0.05224    -0.08697     0.08205
  
  S  H  26  -0.05894     0.16184     0.10492     0.16276     0.04879     0.19746
  
  S  H  27  -0.01963     0.17011     0.08675    -0.17023     0.03232     0.14707
  
  S  H  28  -0.19413    -0.05093     0.22081     0.06656    -0.10927     0.09549
  
  S  C  29   0.13533     0.08253    -0.02795    -0.10591     0.03851     0.13973
 PX  C  29  -0.08622    -0.16278    -0.06482    -0.15863     0.07776    -0.11427
 PY  C  29   0.19431    -0.10833    -0.13098    -0.00043    -0.09434     0.03157
 PZ  C  29   0.00620    -0.00345    -0.00695     0.00031     0.00491    -0.00273
  
  S  C  30   0.07199     0.09416    -0.01734     0.08291     0.07612     0.13715
 PX  C  30   0.15158    -0.17872    -0.15370     0.10457    -0.01468     0.00749
 PY  C  30  -0.20508    -0.07257     0.01552     0.12046     0.15560    -0.09379
 PZ  C  30  -0.01213    -0.00830    -0.00085     0.01485     0.01315    -0.00744




    ROOT NO.   19          20          21          22          23          24

           -18.39313   -17.19370   -16.82345   -16.71665   -15.98402   -15.25132
  
  
  S  C   1  -0.15992     0.04020     0.01855    -0.11907    -0.06044     0.05221
 PX  C   1   0.08624    -0.16626     0.06444    -0.02214    -0.14085     0.07214
 PY  C   1   0.16106     0.16616     0.05249     0.11357    -0.12301    -0.04254
 PZ  C   1   0.00403     0.00295     0.00162     0.00070    -0.02118    -0.00285
  
  S  C   2   0.16422    -0.00653     0.03333     0.06926     0.03011    -0.00573
 PX  C   2   0.08750     0.15003    -0.05651     0.11164     0.17387    -0.08962
 PY  C   2  -0.03051     0.13754     0.12039    -0.24985     0.05676     0.24030
 PZ  C   2   0.00045     0.00605     0.00370    -0.01029    -0.00754     0.00714
  
  S  C   3  -0.07050    -0.02370     0.09328    -0.21721     0.06678     0.03284
 PX  C   3  -0.15350     0.05922     0.04552    -0.05068    -0.23169    -0.16806
 PY  C   3  -0.06139    -0.26766    -0.07336     0.05075    -0.00607    -0.06996
 PZ  C   3   0.00176    -0.00284    -0.00524    -0.00049    -0.01145    -0.00105
  
  S  C   4   0.02989    -0.07060    -0.12432     0.18717     0.06425    -0.02398
 PX  C   4   0.11860    -0.23171     0.02600    -0.07118    -0.12237     0.13703
 PY  C   4   0.10977     0.13849     0.01161     0.10380    -0.19308     0.01578
 PZ  C   4   0.00768     0.00072    -0.01082     0.01209    -0.02044     0.00290
  
  S  C   5  -0.14265     0.02582    -0.02421    -0.05626    -0.00746    -0.00448
 PX  C   5  -0.03482     0.18134    -0.08414     0.20195     0.15201    -0.15100
 PY  C   5  -0.12133     0.11729     0.06851    -0.17971     0.17869     0.17806
 PZ  C   5   0.00130     0.00616    -0.00597     0.00954    -0.01461    -0.00831
  
  S  C   6   0.15118    -0.02000    -0.00632     0.11417    -0.03890    -0.06197
 PX  C   6  -0.11408     0.09384    -0.00112    -0.03082    -0.26216    -0.08009
 PY  C   6   0.01772    -0.24301    -0.02451    -0.02195    -0.10143    -0.01726
 PZ  C   6  -0.00883     0.00166    -0.00332    -0.00230    -0.03867    -0.01105
  
  S  C   7  -0.08213    -0.03552    -0.02004     0.04717    -0.06689    -0.01906
 PX  C   7   0.15787    -0.08977    -0.10168     0.18428     0.17327     0.13129
 PY  C   7   0.09681    -0.03657     0.25380    -0.12473     0.12057    -0.21601
 PZ  C   7   0.00110     0.00522     0.00900    -0.01872    -0.00707    -0.01216
  
  S  C   8   0.10408    -0.02179     0.03263    -0.05602    -0.08284     0.03789
 PX  C   8  -0.16714    -0.04386    -0.19374     0.00342     0.12065     0.11544
 PY  C   8  -0.04846     0.04385     0.18995    -0.22011     0.12293    -0.13519
 PZ  C   8  -0.00807    -0.00108    -0.01277     0.00130    -0.00008     0.00520
  
  S  C   9  -0.12384     0.13401    -0.18744     0.05307     0.04313     0.08418
 PX  C   9   0.03917     0.10861     0.07419     0.04475    -0.06129    -0.09078
 PY  C   9  -0.09161    -0.22764    -0.09175    -0.01736     0.08547    -0.01570
 PZ  C   9  -0.00789    -0.00915    -0.01633    -0.00045    -0.00235     0.00830
  
  S  C  10   0.14449     0.10774     0.17461    -0.01051     0.10887    -0.05934
 PX  C  10   0.02457    -0.12031    -0.01634    -0.08148     0.02038     0.08410
 PY  C  10  -0.05720     0.23885    -0.05120     0.02178    -0.13702     0.06269
 PZ  C  10  -0.00360     0.01392    -0.01294    -0.00942    -0.01468     0.00614
  
  S  C  11  -0.11652    -0.02995    -0.01477    -0.04822    -0.09984    -0.01516
 PX  C  11  -0.16488     0.05566    -0.09499     0.06671    -0.11366    -0.05528
 PY  C  11  -0.06226     0.00496     0.22087     0.11425    -0.03722    -0.12190
 PZ  C  11  -0.01046     0.00828    -0.02189    -0.00486    -0.01585     0.00074
  
  S  H  12  -0.07484     0.00312    -0.23020    -0.08363    -0.07834     0.06192
  
  S  C  13   0.07740    -0.06356     0.04244     0.04015    -0.07569    -0.02377
 PX  C  13   0.17350     0.06820    -0.08145    -0.08155    -0.18721     0.16767
 PY  C  13   0.09683     0.01391     0.24263     0.02975    -0.00020    -0.08188
 PZ  C  13  -0.00393     0.00775     0.00172     0.00529    -0.00349     0.00182
  
  S  H  14  -0.05014    -0.02612    -0.25204     0.20017    -0.06502     0.20759
  
  S  H  15  -0.22537    -0.03477    -0.05738    -0.13230     0.12123     0.02696
  
  S  H  16   0.13900    -0.03855    -0.10332     0.27343     0.04384    -0.21857
  
  S  H  17  -0.13900     0.03030     0.08331    -0.25111     0.06570     0.19747
  
  S  H  18   0.16551    -0.07395    -0.00139     0.08598     0.21764     0.03967
  
  S  H  19   0.08244     0.03808     0.25162    -0.19792    -0.00328    -0.13767
  
  S  H  20   0.03351    -0.05513     0.24951     0.07385     0.04029    -0.15093
  
  S  C  21   0.18462     0.01975    -0.02088    -0.06520    -0.01122     0.06493
 PX  C  21  -0.01463    -0.16519    -0.14729    -0.18316    -0.13485    -0.12888
 PY  C  21  -0.11898    -0.15459     0.21140     0.14992    -0.13300     0.21992
 PZ  C  21  -0.01376    -0.00700    -0.00361     0.00109    -0.02014    -0.00666
  
  S  C  22  -0.16627    -0.00804     0.07518     0.09724    -0.04791     0.02251
 PX  C  22  -0.16804    -0.03756    -0.04442     0.03655     0.27319    -0.18003
 PY  C  22   0.01045     0.25858    -0.03306     0.03471     0.03609    -0.04962
 PZ  C  22  -0.01086     0.00265    -0.00329     0.00358    -0.01532    -0.01687
  
  S  C  23   0.16465     0.02554    -0.06683    -0.09484    -0.06493    -0.03605
 PX  C  23   0.10576     0.18758     0.02403     0.02206     0.14455     0.23581
 PY  C  23   0.15144    -0.16154    -0.04415    -0.09638     0.18527     0.04984
 PZ  C  23  -0.01837    -0.01230     0.00401     0.01021    -0.02304    -0.02178
  
  S  C  24  -0.17056     0.02291     0.01442     0.06294     0.00487    -0.04503
 PX  C  24   0.07208    -0.20466    -0.05781    -0.09141    -0.16673    -0.21838
 PY  C  24  -0.03975    -0.17000     0.22523     0.18605    -0.02446     0.21874
 PZ  C  24  -0.01751    -0.00487     0.02157     0.02731    -0.00953     0.01875
  
  S  H  25   0.17067     0.06737    -0.23484    -0.21878     0.03927    -0.19120
  
  S  H  26  -0.21969    -0.04041     0.00140     0.07964     0.20879    -0.14745
  
  S  H  27   0.23092    -0.01597    -0.05385    -0.10688     0.16978     0.13117
  
  S  H  28  -0.13727    -0.05560     0.20587     0.20798     0.04435     0.22987
  
  S  C  29  -0.05431    -0.06977     0.15194     0.12592     0.12897     0.00272
 PX  C  29   0.12950     0.18957     0.06680     0.08935     0.07898     0.16845
 PY  C  29   0.10619    -0.16448    -0.09928    -0.10220     0.17803     0.05361
 PZ  C  29  -0.00830     0.00601    -0.01387    -0.00059    -0.00551    -0.00253
  
  S  C  30   0.06707     0.00979    -0.16404    -0.12945     0.06217     0.01367
 PX  C  30  -0.16750    -0.02022    -0.02887    -0.00530     0.24363    -0.15229
 PY  C  30  -0.04523     0.30461    -0.05817    -0.00954    -0.03933    -0.02577
 PZ  C  30  -0.02091     0.03253    -0.00972     0.00708    -0.00440    -0.00445




    ROOT NO.   25          26          27          28          29          30

           -14.86213   -14.79730   -14.67400   -14.60946   -13.75810   -13.45453
  
  
  S  C   1  -0.01112    -0.00417     0.02995     0.03888     0.04722    -0.00878
 PX  C   1   0.29073     0.02853    -0.08077     0.04054     0.09578    -0.03482
 PY  C   1   0.07406     0.22990     0.19266     0.03583     0.08444    -0.04321
 PZ  C   1  -0.04597     0.05825    -0.05976     0.06730     0.05482     0.24004
  
  S  C   2   0.08093     0.09280     0.03654     0.00159    -0.02182     0.01104
 PX  C   2  -0.24800     0.00854     0.08402    -0.05067    -0.12232     0.04133
 PY  C   2   0.15425     0.03719     0.04745     0.11191    -0.05445     0.02975
 PZ  C   2  -0.05204     0.07668    -0.08350     0.08717     0.04536     0.25791
  
  S  C   3  -0.02138    -0.03419    -0.05529    -0.02694     0.02330     0.00901
 PX  C   3  -0.12363     0.03564     0.01865    -0.06968     0.20183    -0.06879
 PY  C   3   0.01141    -0.11759    -0.12962    -0.06247     0.02397    -0.03202
 PZ  C   3  -0.09310     0.13382    -0.15081     0.13896     0.05370     0.31026
  
  S  C   4   0.03119    -0.03791    -0.02772     0.00652     0.02155    -0.01721
 PX  C   4   0.12715    -0.06621    -0.03642     0.09827     0.17116    -0.02517
 PY  C   4   0.04854     0.11697     0.13198     0.08923     0.19252    -0.03773
 PZ  C   4  -0.09103     0.12771    -0.14378     0.14953     0.05875     0.31548
  
  S  C   5  -0.10151    -0.01033     0.03586     0.00554    -0.03010     0.01616
 PX  C   5  -0.07607     0.06095     0.02270    -0.09322    -0.15215     0.01146
 PY  C   5   0.18049     0.19541     0.16375     0.09781    -0.07663     0.01454
 PZ  C   5  -0.06897     0.07248    -0.08634     0.08634     0.05271     0.27199
  
  S  C   6   0.00571     0.01315    -0.01693    -0.02153     0.04522    -0.00596
 PX  C   6  -0.24171    -0.03348     0.09957     0.00007     0.12886    -0.05207
 PY  C   6  -0.04567    -0.22982    -0.20545    -0.04114     0.04751    -0.00445
 PZ  C   6  -0.07839     0.04266    -0.06292     0.06745     0.06653     0.24815
  
  S  C   7   0.06664    -0.00021    -0.03679     0.00474    -0.01738     0.00624
 PX  C   7   0.16018     0.00152    -0.01526     0.07369    -0.21226     0.07593
 PY  C   7  -0.01079     0.21592     0.01628    -0.20381    -0.07795     0.03554
 PZ  C   7  -0.09682     0.15435    -0.15244     0.11833     0.03122     0.16118
  
  S  C   8  -0.03931    -0.03626    -0.02510     0.00830    -0.02914     0.01779
 PX  C   8  -0.15223    -0.01720     0.16069     0.08885    -0.24255     0.03189
 PY  C   8  -0.06175    -0.07801    -0.18044    -0.21098    -0.17207     0.02114
 PZ  C   8  -0.08922     0.12457    -0.14690     0.13896     0.00415     0.16575
  
  S  C   9   0.01286     0.03481     0.00461    -0.03422     0.00456    -0.00004
 PX  C   9   0.17403     0.03420    -0.17214    -0.11816     0.25086    -0.03918
 PY  C   9   0.08750     0.03888    -0.10381    -0.11453     0.11162     0.00693
 PZ  C   9  -0.10144     0.17312    -0.20644     0.17270    -0.02155     0.01628
  
  S  C  10  -0.01379    -0.03957     0.00080     0.02710    -0.00565     0.00300
 PX  C  10  -0.11782    -0.21266    -0.02854     0.14618     0.15506    -0.04248
 PY  C  10  -0.04098    -0.13282     0.02088     0.08472     0.11728    -0.05931
 PZ  C  10  -0.11075     0.18522    -0.20595     0.16366     0.00131     0.01182
  
  S  C  11  -0.06404    -0.00896     0.04842     0.01069    -0.00450    -0.01693
 PX  C  11   0.11561     0.20951     0.05331    -0.16800    -0.15580     0.04473
 PY  C  11   0.07227    -0.21125    -0.02316     0.23752    -0.19838     0.02936
 PZ  C  11  -0.06937     0.17801    -0.17550     0.10806    -0.03864    -0.14207
  
  S  H  12  -0.02824     0.25338     0.05028    -0.24500     0.08145    -0.01697
  
  S  C  13   0.05460     0.05534     0.02342    -0.00593     0.03151     0.01109
 PX  C  13  -0.04975     0.03425    -0.02620    -0.14763    -0.23785     0.06927
 PY  C  13  -0.14039    -0.09141     0.22443     0.27910    -0.11068    -0.01411
 PZ  C  13  -0.07384     0.13404    -0.17451     0.14865    -0.05299    -0.13821
  
  S  H  14   0.10400    -0.17410    -0.01989     0.17921    -0.03618    -0.00755
  
  S  H  15  -0.19321    -0.20432    -0.10360    -0.03105    -0.09489     0.03822
  
  S  H  16  -0.18384     0.01416     0.02237    -0.10478    -0.03026    -0.00695
  
  S  H  17   0.12938     0.11990     0.13750     0.11145    -0.01468     0.00232
  
  S  H  18   0.22805     0.04239    -0.08535    -0.01763    -0.11312     0.02421
  
  S  H  19   0.00635    -0.07044    -0.20782    -0.19429    -0.04118     0.00299
  
  S  H  20  -0.06311    -0.06003     0.17739     0.28165     0.03339    -0.04503
  
  S  C  21  -0.05559    -0.05334    -0.03212     0.00727     0.01075    -0.02049
 PX  C  21  -0.04028    -0.00471     0.10228     0.06654    -0.19032     0.01241
 PY  C  21  -0.18743     0.10445     0.11432    -0.10729    -0.02505    -0.02770
 PZ  C  21  -0.03104     0.10109    -0.11016     0.07601    -0.07874    -0.23348
  
  S  C  22   0.02661     0.01917    -0.01073    -0.03591    -0.04951     0.02190
 PX  C  22   0.12227     0.08274     0.03428     0.06042     0.20325    -0.01265
 PY  C  22   0.17679    -0.12789    -0.18541     0.00811    -0.01393     0.06052
 PZ  C  22  -0.00235     0.06964    -0.09215     0.06085    -0.07499    -0.20231
  
  S  C  23  -0.00088    -0.02076     0.01550     0.03219    -0.06825     0.01035
 PX  C  23  -0.15403    -0.11495    -0.11583    -0.06050     0.07714    -0.06671
 PY  C  23  -0.19651     0.09328     0.15426     0.02168     0.16346    -0.09526
 PZ  C  23   0.00711     0.07523    -0.09094     0.06019    -0.08167    -0.19465
  
  S  C  24   0.08146    -0.01863    -0.05763     0.00004     0.02167     0.00109
 PX  C  24   0.11331     0.13176     0.13086     0.06896    -0.12266     0.05068
 PY  C  24  -0.05584     0.06003    -0.02947    -0.13515    -0.07275     0.06139
 PZ  C  24  -0.02476     0.08947    -0.13716     0.06661    -0.07853    -0.22640
  
  S  H  25   0.10944    -0.10760    -0.06437     0.10424    -0.04549     0.02655
  
  S  H  26   0.11991     0.08893     0.03023     0.03556     0.16822    -0.00308
  
  S  H  27  -0.22478     0.00203     0.07504     0.00179     0.14122    -0.09730
  
  S  H  28  -0.05102    -0.00174    -0.10188    -0.12722    -0.00070     0.01873
  
  S  C  29   0.00146     0.00613     0.03475     0.04217     0.01447     0.01343
 PX  C  29  -0.00863    -0.00998    -0.09737    -0.09670     0.20880    -0.01675
 PY  C  29  -0.09994     0.10723     0.04792    -0.06436     0.18393    -0.03418
 PZ  C  29  -0.06150     0.17087    -0.20011     0.12910    -0.07354    -0.29815
  
  S  C  30  -0.04771     0.03337     0.01755    -0.05051    -0.01199    -0.00340
 PX  C  30   0.00551    -0.04593     0.03704     0.13034     0.22981    -0.07142
 PY  C  30   0.05355    -0.15172    -0.06210     0.02433     0.04895     0.00339
 PZ  C  30  -0.05291     0.13852    -0.21537     0.14453    -0.07516    -0.29841




    ROOT NO.   31          32          33          34          35          36

           -13.07259   -12.89832   -12.18180   -11.79739   -11.56045   -11.46137
  
  
  S  C   1   0.02983     0.00740     0.01472    -0.00130    -0.00735     0.01155
 PX  C   1  -0.14421    -0.23694    -0.12141    -0.01680     0.01185     0.14823
 PY  C   1   0.19842    -0.14121     0.18730    -0.03459    -0.08800     0.05903
 PZ  C   1  -0.00377    -0.00707     0.03955     0.31217    -0.03098     0.08027
  
  S  C   2   0.00387    -0.01563    -0.02535     0.01382     0.04095    -0.02978
 PX  C   2   0.11605     0.24246     0.07572     0.02377     0.02285    -0.17306
 PY  C   2  -0.11898     0.15347    -0.20155     0.03696     0.14417    -0.12760
 PZ  C   2  -0.02082    -0.01015     0.01380     0.21388    -0.02640     0.05636
  
  S  C   3   0.01511     0.02616     0.01993    -0.00418    -0.00668     0.02104
 PX  C   3   0.01894    -0.20607    -0.12374    -0.04117     0.08461     0.21854
 PY  C   3   0.06571    -0.14307     0.26745    -0.04198    -0.23870     0.10836
 PZ  C   3  -0.02618    -0.03831     0.00979     0.03079    -0.03614     0.02384
  
  S  C   4  -0.01173    -0.03630    -0.00567     0.00633     0.00919    -0.01068
 PX  C   4   0.13802     0.15406     0.19177     0.02173    -0.08218    -0.17705
 PY  C   4   0.01196     0.06997    -0.23479     0.03821     0.24603    -0.10877
 PZ  C   4  -0.02143    -0.02878     0.01547     0.06471     0.01543     0.01624
  
  S  C   5   0.01487     0.01644    -0.02412     0.00328     0.02712     0.02926
 PX  C   5  -0.13536    -0.18291    -0.16898    -0.02085     0.06117     0.16829
 PY  C   5   0.12033    -0.12108     0.16612    -0.01500    -0.09568     0.06896
 PZ  C   5  -0.01204    -0.00971     0.03291     0.25529    -0.00315     0.06116
  
  S  C   6   0.00560    -0.01369     0.00003     0.00828     0.00437    -0.00830
 PX  C   6   0.19504     0.17788     0.12670    -0.02951    -0.01798    -0.11948
 PY  C   6  -0.17209     0.13072    -0.18673     0.01506     0.09472    -0.07974
 PZ  C   6   0.00949     0.02469     0.05158     0.33544    -0.01759     0.06137
  
  S  C   7  -0.02132    -0.08030    -0.00325    -0.00291     0.04541    -0.00222
 PX  C   7  -0.01248     0.15502     0.11503     0.03895    -0.04399    -0.22807
 PY  C   7   0.11283    -0.00515    -0.02967     0.03503     0.21409    -0.10033
 PZ  C   7  -0.01919    -0.03683    -0.02461    -0.17708    -0.03292    -0.02952
  
  S  C   8   0.01113     0.06230    -0.01480    -0.02253     0.06112     0.02102
 PX  C   8   0.07002    -0.07582    -0.02429    -0.04885     0.08653     0.21649
 PY  C   8  -0.10490    -0.07299     0.12450    -0.02703    -0.20803     0.10097
 PZ  C   8  -0.01439    -0.03890     0.01347    -0.14462     0.03280    -0.02447
  
  S  C   9  -0.05195    -0.03217    -0.00909     0.00673    -0.01432    -0.01178
 PX  C   9  -0.09515     0.03119     0.04300     0.05449    -0.13008    -0.22718
 PY  C   9   0.21237    -0.09213     0.09138     0.02472     0.31360    -0.05436
 PZ  C   9  -0.00228    -0.03587     0.00837    -0.31096     0.04677    -0.08334
  
  S  C  10  -0.01240     0.06872    -0.00665     0.01082     0.00047    -0.00080
 PX  C  10   0.15966    -0.04498     0.03276    -0.07544     0.14682     0.26090
 PY  C  10  -0.19595     0.01123    -0.04964     0.00093    -0.30975     0.08563
 PZ  C  10  -0.03260    -0.02378    -0.02806    -0.32841    -0.06387    -0.07985
  
  S  C  11  -0.01764    -0.09152     0.02057     0.00240     0.04709     0.01086
 PX  C  11  -0.15693    -0.01692    -0.01022     0.08800    -0.09945    -0.24713
 PY  C  11   0.00155    -0.12036     0.15857     0.00411     0.18375    -0.08884
 PZ  C  11  -0.02725     0.01357    -0.02411    -0.13879    -0.07658    -0.06790
  
  S  H  12  -0.07734     0.04839    -0.13997     0.03537    -0.21419    -0.04962
  
  S  C  13   0.00867     0.07762     0.01484    -0.00800     0.04847     0.00600
 PX  C  13  -0.04491     0.14052     0.07432    -0.08502     0.04616     0.21826
 PY  C  13  -0.09686     0.04166    -0.13764    -0.00920    -0.20695     0.07853
 PZ  C  13  -0.00072    -0.00564     0.01755    -0.13599     0.04424    -0.05287
  
  S  H  14  -0.10925     0.03675     0.08545    -0.00175    -0.21680    -0.01572
  
  S  H  15  -0.08977     0.24235    -0.10255     0.02481     0.07100    -0.13006
  
  S  H  16   0.15132    -0.01730     0.20265    -0.02118    -0.10653     0.00649
  
  S  H  17   0.17005    -0.00750     0.22231    -0.01470    -0.11593    -0.01197
  
  S  H  18  -0.18429    -0.19056    -0.12666    -0.00098     0.01674     0.12024
  
  S  H  19  -0.11181     0.00718     0.11853    -0.00434    -0.22660    -0.01259
  
  S  H  20  -0.04838    -0.00004    -0.14994     0.02450    -0.19914    -0.04621
  
  S  C  21   0.01691    -0.01856     0.02429    -0.00164     0.02902     0.04175
 PX  C  21   0.04765    -0.23461    -0.09247     0.08283    -0.05573    -0.22298
 PY  C  21  -0.22621    -0.08143     0.13287     0.02582     0.06093    -0.06425
 PZ  C  21   0.00266     0.04290     0.01094     0.23208    -0.00997     0.06923
  
  S  C  22   0.01270    -0.00284    -0.00797     0.00064    -0.00400    -0.02397
 PX  C  22  -0.09765     0.22904     0.05851    -0.06316     0.02001     0.14407
 PY  C  22   0.28053     0.07287    -0.14718    -0.04562    -0.06106     0.06922
 PZ  C  22   0.02777     0.06572     0.00452     0.28830     0.00377     0.12619
  
  S  C  23  -0.00056     0.00120     0.00205    -0.00696     0.00279     0.01401
 PX  C  23   0.11749    -0.23674    -0.06089     0.09685    -0.01908    -0.13446
 PY  C  23  -0.27022    -0.04287     0.14550     0.03513     0.06053    -0.02297
 PZ  C  23   0.03803     0.08395     0.00300     0.27608     0.02009     0.14253
  
  S  C  24   0.01749    -0.00598     0.03609     0.00905     0.04109    -0.02626
 PX  C  24  -0.09077     0.25344     0.02077    -0.07686    -0.00797     0.16683
 PY  C  24   0.19793     0.06549    -0.19090    -0.04444    -0.12146     0.06123
 PZ  C  24   0.06170     0.04955    -0.00973     0.22142     0.02189     0.08555
  
  S  H  25   0.22687    -0.03915    -0.16119     0.00623    -0.08189    -0.02719
  
  S  H  26  -0.09517     0.22119     0.05634    -0.06240     0.01724     0.13604
  
  S  H  27  -0.16320    -0.16137     0.09005     0.06685     0.03998    -0.09466
  
  S  H  28   0.22057    -0.04157    -0.17405     0.00922    -0.09990    -0.02290
  
  S  C  29   0.00438     0.03375    -0.01003    -0.00530     0.00211    -0.00982
 PX  C  29  -0.07026     0.20241     0.10954    -0.08803     0.06676     0.23389
 PY  C  29   0.13135     0.06739    -0.24867    -0.00358    -0.21180     0.07509
 PZ  C  29  -0.00211     0.04451     0.00569     0.08404    -0.02700     0.00260
  
  S  C  30  -0.00876    -0.02069    -0.00719     0.00631    -0.00528     0.01847
 PX  C  30   0.02661    -0.17287    -0.09635     0.09125    -0.08715    -0.21587
 PY  C  30  -0.16528    -0.10182     0.25378     0.00480     0.19388    -0.05248
 PZ  C  30   0.00633     0.01619     0.04609     0.09065     0.05611    -0.00843




    ROOT NO.   37          38          39          40          41          42

           -10.73297    -9.86886    -9.62727    -8.32716    -8.09216    -6.64827
  
  
  S  C   1   0.00094    -0.00313     0.00359     0.00557     0.00136    -0.00414
 PX  C   1  -0.01001    -0.00865    -0.00899    -0.00823    -0.00080     0.00673
 PY  C   1  -0.00488     0.01223    -0.00435    -0.00540    -0.00975     0.00447
 PZ  C   1   0.08698    -0.33183     0.19050     0.25802     0.23649    -0.20628
  
  S  C   2   0.00235    -0.00458    -0.00251    -0.00306     0.00499     0.00127
 PX  C   2   0.00943     0.00971     0.00438     0.00274     0.00135    -0.00337
 PY  C   2   0.00031    -0.00081    -0.01381    -0.01572     0.00799     0.00853
 PZ  C   2   0.20072    -0.09980     0.34221     0.36874    -0.04258    -0.23119
  
  S  C   3  -0.00192     0.00550     0.00022     0.00162    -0.01006     0.00135
 PX  C   3  -0.00387    -0.01361    -0.00305     0.00533    -0.00520    -0.00269
 PY  C   3  -0.02062     0.00363    -0.00430    -0.00057     0.00106    -0.00308
 PZ  C   3   0.23275     0.26125     0.23594     0.04085    -0.33683     0.15220
  
  S  C   4   0.01457    -0.01277     0.01109     0.00276     0.01750     0.00811
 PX  C   4   0.00386     0.01450     0.00365    -0.00133     0.00598     0.00584
 PY  C   4   0.02760    -0.01240     0.00940     0.00386     0.01355     0.00725
 PZ  C   4  -0.21027     0.27200    -0.23300    -0.08271    -0.34175    -0.12993
  
  S  C   5  -0.00704    -0.00511    -0.01545    -0.01673    -0.00589     0.00881
 PX  C   5   0.00180    -0.01650     0.00337     0.00504    -0.00192    -0.00579
 PY  C   5  -0.00735    -0.00451    -0.00601    -0.00512     0.00037     0.00161
 PZ  C   5  -0.19537    -0.11476    -0.31916    -0.35526     0.01477     0.23270
  
  S  C   6  -0.00047    -0.00545    -0.00044    -0.00067     0.00683     0.00250
 PX  C   6   0.01340     0.04341     0.01768     0.01991    -0.02508    -0.01524
 PY  C   6   0.00749     0.01062     0.00851     0.01049    -0.00414    -0.00769
 PZ  C   6  -0.09155    -0.34014    -0.15305    -0.19522     0.27402     0.17599
  
  S  C   7   0.01759     0.00163     0.00147    -0.00728     0.00462     0.00483
 PX  C   7   0.02298     0.01763     0.00949    -0.01146     0.00699     0.01239
 PY  C   7   0.00251    -0.01205    -0.01508     0.00691     0.00450    -0.02066
 PZ  C   7   0.35552     0.18735     0.19239    -0.19957     0.02637     0.36806
  
  S  C   8  -0.00862     0.00675    -0.01237     0.00804    -0.00794    -0.02402
 PX  C   8   0.02780    -0.03301     0.00134    -0.01229    -0.00672     0.00927
 PY  C   8  -0.01949    -0.00370     0.00437    -0.00202     0.00208     0.00716
 PZ  C   8  -0.34352     0.22749    -0.20551     0.18927    -0.02373    -0.37684
  
  S  C   9  -0.00702     0.00509     0.00392     0.00360     0.01316     0.01051
 PX  C   9  -0.02974     0.03194     0.00411     0.01338     0.01610    -0.00259
 PY  C   9   0.05829    -0.00563    -0.01214    -0.01073    -0.01159    -0.00392
 PZ  C   9  -0.29740     0.00923    -0.00311     0.24477     0.34667    -0.00428
  
  S  C  10  -0.01239     0.00053    -0.00350     0.01009    -0.01624    -0.00315
 PX  C  10   0.02538    -0.02255    -0.01124     0.00027    -0.01021    -0.00135
 PY  C  10  -0.05615     0.01281     0.01157     0.01300    -0.01788     0.00623
 PZ  C  10   0.27352    -0.02858    -0.02366    -0.20883     0.36404    -0.02450
  
  S  C  11   0.00945    -0.00602    -0.00382    -0.00465     0.00053    -0.00727
 PX  C  11  -0.03519     0.03150     0.01907     0.01111     0.00055     0.01695
 PY  C  11   0.05758    -0.01093    -0.01688    -0.01359     0.00362    -0.01616
 PZ  C  11   0.30313    -0.23506    -0.22289    -0.18587     0.01151    -0.37842
  
  S  H  12  -0.05374     0.01272     0.01445     0.00899    -0.00332     0.00551
  
  S  C  13   0.01249    -0.00057    -0.00407    -0.00594    -0.00562    -0.00934
 PX  C  13   0.00091    -0.02260     0.00112    -0.00094    -0.01007     0.00405
 PY  C  13  -0.01650    -0.00043    -0.00102    -0.00730    -0.00552    -0.01155
 PZ  C  13  -0.35031    -0.17857     0.21529     0.20980     0.03247     0.38083
  
  S  H  14  -0.01549     0.00814     0.00617     0.00112    -0.00065    -0.00022
  
  S  H  15   0.00637     0.00830     0.00214     0.00017    -0.00151    -0.00023
  
  S  H  16  -0.00103     0.00894     0.00369     0.00309    -0.00443    -0.00224
  
  S  H  17  -0.00188     0.00936     0.00325     0.00486    -0.00304    -0.00524
  
  S  H  18  -0.00584    -0.01421    -0.00402    -0.00232     0.00104    -0.00086
  
  S  H  19  -0.02472     0.01003     0.00788     0.00011     0.00281     0.01071
  
  S  H  20  -0.03031     0.00216     0.00749     0.00390    -0.00147     0.00420
  
  S  C  21   0.01215     0.00159    -0.01152     0.00653    -0.00154     0.00141
 PX  C  21  -0.01147     0.01230     0.01585    -0.01096     0.00879    -0.00359
 PY  C  21  -0.00094     0.00857     0.01599    -0.01576     0.00579    -0.00957
 PZ  C  21   0.19530     0.12676    -0.34614     0.35145    -0.01870     0.22693
  
  S  C  22   0.00146    -0.00232    -0.00246     0.00224    -0.00067     0.00146
 PX  C  22  -0.00249    -0.01077    -0.00057     0.00112    -0.00570     0.00086
 PY  C  22  -0.00373    -0.02253    -0.00743     0.00490    -0.01209     0.00137
 PZ  C  22   0.11481     0.35969    -0.18802     0.23189     0.26178     0.17673
  
  S  C  23  -0.00177    -0.00473     0.00231     0.00036    -0.00193     0.00342
 PX  C  23   0.00389     0.04436     0.00683    -0.01472     0.02638    -0.01747
 PY  C  23   0.00123     0.02019     0.01067    -0.01013     0.00886    -0.00656
 PZ  C  23  -0.04955     0.35969     0.17750    -0.21609     0.27988    -0.19812
  
  S  C  24   0.00284     0.00554     0.01249    -0.01854     0.00160    -0.01447
 PX  C  24  -0.01736    -0.02193     0.01506    -0.00800    -0.01255    -0.00037
 PY  C  24  -0.00370    -0.02703    -0.03340     0.03896    -0.01116     0.02541
 PZ  C  24  -0.16420     0.13496     0.35109    -0.35872     0.01235    -0.22520
  
  S  H  25  -0.01084    -0.00689     0.00211    -0.00018    -0.00351     0.00020
  
  S  H  26  -0.00269    -0.01172    -0.00134     0.00238    -0.00646     0.00167
  
  S  H  27   0.00466     0.02552     0.00570    -0.00707     0.01073    -0.00620
  
  S  H  28  -0.00547    -0.00670    -0.01505     0.01686    -0.00585     0.00949
  
  S  C  29  -0.00298     0.01118     0.00921    -0.00327     0.01746     0.00689
 PX  C  29   0.00202    -0.00957    -0.00108    -0.00077    -0.00027    -0.00173
 PY  C  29  -0.05076     0.00312     0.01217     0.00961    -0.00046     0.00948
 PZ  C  29   0.18158    -0.26544    -0.23261     0.04783    -0.35154    -0.11743
  
  S  C  30  -0.00328     0.00566     0.00076     0.00166     0.00339     0.00202
 PX  C  30  -0.00247     0.02984    -0.00746     0.00488     0.01537    -0.00696
 PY  C  30   0.05290     0.03259    -0.02333    -0.00287     0.03982    -0.01725
 PZ  C  30  -0.20700    -0.23154     0.25437    -0.07685    -0.32196     0.14419




    ROOT NO.   43          44          45          46          47          48

            -1.08030     0.23252     0.33930     1.23466     1.37607     1.94056
  
  
  S  C   1   0.00150     0.00701    -0.00305    -0.00209    -0.01590     0.00351
 PX  C   1  -0.00102    -0.00855     0.00036    -0.00116     0.01109    -0.00014
 PY  C   1  -0.00818    -0.00332     0.00987     0.00896     0.00436     0.00585
 PZ  C   1   0.20203     0.23449    -0.24420    -0.19195    -0.33814    -0.08737
  
  S  C   2   0.00052    -0.00038     0.00325     0.00496     0.00429    -0.00255
 PX  C   2   0.00107     0.00599    -0.00023     0.00106    -0.00854     0.00015
 PY  C   2   0.00946     0.00142    -0.01068    -0.00929    -0.00637    -0.00673
 PZ  C   2  -0.24105     0.03819     0.34918     0.35334     0.10623     0.19268
  
  S  C   3  -0.00668    -0.00688    -0.00091    -0.01169     0.00834    -0.00533
 PX  C   3  -0.00259    -0.00452     0.00016    -0.00277     0.00643    -0.00292
 PY  C   3   0.00261     0.01026     0.00101     0.00616    -0.00672     0.00795
 PZ  C   3  -0.14873    -0.34196    -0.03357    -0.24930     0.27133    -0.22934
  
  S  C   4   0.00729    -0.01833    -0.00177     0.00188     0.00751    -0.00979
 PX  C   4  -0.00521     0.00013     0.01164     0.01426    -0.00941     0.00589
 PY  C   4  -0.00419    -0.01504     0.00673    -0.00065     0.00597    -0.01111
 PZ  C   4  -0.14384     0.33734    -0.09494    -0.25057    -0.26741    -0.21674
  
  S  C   5  -0.01787     0.01063     0.02361     0.02349    -0.01575     0.02061
 PX  C   5   0.00528     0.00250    -0.01155    -0.01533     0.00604    -0.00751
 PY  C   5   0.00111    -0.00182    -0.00042     0.00087     0.00433     0.00130
 PZ  C   5  -0.23513     0.02789     0.33788     0.33481    -0.11628     0.18283
  
  S  C   6   0.00828    -0.01436    -0.01072    -0.01308     0.02396    -0.01465
 PX  C   6  -0.01544     0.01968     0.01439     0.01248    -0.02435     0.00482
 PY  C   6   0.00013     0.00692    -0.00285    -0.00383    -0.01009    -0.00403
 PZ  C   6   0.19896    -0.27483    -0.18922    -0.16701     0.34290    -0.08027
  
  S  C   7   0.00893     0.00769    -0.00269     0.00900    -0.01189     0.00310
 PX  C   7   0.01008     0.00065    -0.00355     0.00335    -0.00479     0.00280
 PY  C   7  -0.01865     0.00722     0.01313    -0.00965     0.00817    -0.02874
 PZ  C   7   0.36851    -0.02736    -0.18855     0.18371    -0.19696     0.34138
  
  S  C   8   0.02004     0.00871    -0.01603     0.01188     0.01791     0.05300
 PX  C   8  -0.01000    -0.00071     0.00233    -0.00716     0.00435    -0.00104
 PY  C   8  -0.00114    -0.00514     0.00151     0.00102     0.00416     0.00195
 PZ  C   8   0.38020    -0.02728    -0.18448     0.19988     0.20234     0.34350
  
  S  C   9  -0.00598    -0.00541     0.01031    -0.00285    -0.01990    -0.04492
 PX  C   9   0.00594    -0.00267     0.00039     0.00642    -0.00173     0.00347
 PY  C   9  -0.01041     0.00598    -0.01738    -0.00534    -0.00249     0.02499
 PZ  C   9  -0.00264    -0.33560     0.26547     0.01600    -0.00386    -0.32036
  
  S  C  10   0.00133    -0.01895    -0.01378    -0.00305     0.01092     0.03877
 PX  C  10  -0.00356    -0.00465    -0.00087    -0.00190    -0.00112     0.00113
 PY  C  10   0.00839    -0.01214    -0.01111     0.00458     0.00272     0.02658
 PZ  C  10   0.01019     0.37874     0.18817     0.02855    -0.01596    -0.28326
  
  S  C  11  -0.00598    -0.00165     0.00474     0.00205    -0.01292    -0.02624
 PX  C  11   0.02079    -0.01000     0.00301     0.01107    -0.01155    -0.00480
 PY  C  11  -0.00931    -0.00731    -0.00395    -0.00413    -0.00099     0.00563
 PZ  C  11  -0.36760    -0.02691    -0.17404    -0.22534     0.21749     0.32611
  
  S  H  12   0.00301     0.00117    -0.00317    -0.00144     0.01059     0.01751
  
  S  C  13   0.01405     0.00830     0.00974     0.00354     0.02216     0.00566
 PX  C  13   0.00299     0.00502     0.00497    -0.00531     0.00779    -0.00041
 PY  C  13   0.01532    -0.00125     0.00993     0.00841     0.00488    -0.02460
 PZ  C  13  -0.36288     0.01177    -0.18798    -0.22604    -0.17668     0.35157
  
  S  H  14  -0.00504    -0.00213     0.00491    -0.00450     0.00804    -0.00707
  
  S  H  15  -0.00112    -0.00151     0.00211     0.00202     0.00691    -0.00130
  
  S  H  16  -0.00019     0.00308    -0.00151    -0.00172    -0.00505     0.00241
  
  S  H  17   0.00748    -0.00078    -0.01327    -0.01455     0.00578    -0.01137
  
  S  H  18  -0.00317     0.01080     0.00470     0.00694    -0.01751     0.00937
  
  S  H  19  -0.01002    -0.00218     0.01210    -0.00798    -0.01224    -0.03758
  
  S  H  20  -0.00351    -0.00217    -0.00433    -0.00215    -0.00947     0.00192
  
  S  C  21   0.00557    -0.00814     0.01126    -0.00896    -0.01871     0.00050
 PX  C  21  -0.00641     0.00604    -0.00725     0.00203     0.00933     0.00267
 PY  C  21  -0.00746    -0.00219    -0.01282     0.01178     0.00337    -0.00677
 PZ  C  21   0.22912     0.03013     0.37533    -0.32600    -0.12911     0.18058
  
  S  C  22  -0.00198    -0.00022    -0.00556     0.00528     0.00427     0.00058
 PX  C  22   0.00280     0.00021     0.00402    -0.00283    -0.00266     0.00012
 PY  C  22   0.00556    -0.00465     0.00882    -0.00664    -0.00924     0.00311
 PZ  C  22  -0.17906     0.24816    -0.25210     0.17493     0.36504    -0.09724
  
  S  C  23  -0.00382     0.00141    -0.00776     0.00706    -0.00711    -0.00793
 PX  C  23  -0.00965    -0.01756    -0.00679     0.00321    -0.01719     0.00257
 PY  C  23  -0.00165    -0.00338    -0.00229     0.00237    -0.00331    -0.00062
 PZ  C  23  -0.20435    -0.28726    -0.22107     0.16095    -0.36412    -0.05090
  
  S  C  24   0.01285     0.00468     0.02503    -0.02574     0.02021     0.02368
 PX  C  24   0.00794    -0.00052     0.01060    -0.00725    -0.00149     0.00039
 PY  C  24  -0.01584    -0.00379    -0.02826     0.02474    -0.01506    -0.01492
 PZ  C  24   0.22237     0.03141     0.37858    -0.32584     0.13140     0.15600
  
  S  H  25  -0.00153     0.00472    -0.00541     0.00670     0.01179    -0.00323
  
  S  H  26   0.00366     0.00178     0.00561    -0.00412     0.00017    -0.00070
  
  S  H  27   0.00215     0.00086     0.00604    -0.00607     0.00861     0.00558
  
  S  H  28  -0.00302    -0.00131    -0.01150     0.01590    -0.00830    -0.01599
  
  S  C  29  -0.00704     0.02400    -0.00196    -0.01070     0.02894     0.02066
 PX  C  29  -0.00619     0.00455    -0.00374     0.00091     0.00521    -0.00357
 PY  C  29  -0.00118     0.01202     0.00361    -0.00595     0.01110     0.00193
 PZ  C  29   0.12499    -0.34730    -0.05354     0.23995    -0.26680    -0.20066
  
  S  C  30  -0.00680    -0.01657    -0.01121     0.01236    -0.03183    -0.01864
 PX  C  30  -0.00175    -0.01242    -0.00155     0.00559    -0.01034    -0.00334
 PY  C  30  -0.01912    -0.02068     0.00061    -0.01718    -0.01597     0.01816
 PZ  C  30   0.14132     0.32631    -0.10935     0.25441     0.24333    -0.20920




    ROOT NO.   49          50          51          52          53          54

             2.38900     2.52622     2.89191     3.16878     3.34523     3.40304
  
  
  S  C   1  -0.07375    -0.10947     0.18033     0.00380     0.25795    -0.12322
 PX  C   1   0.00295    -0.02566     0.00986    -0.01840    -0.02342    -0.07686
 PY  C   1  -0.00500    -0.01719     0.02420    -0.00338     0.03117     0.05004
 PZ  C   1  -0.31407     0.08426     0.02823     0.24419    -0.03440     0.01929
  
  S  C   2   0.07060     0.15337    -0.18887     0.03197    -0.16472     0.20817
 PX  C   2  -0.00320     0.02235     0.00463     0.01724     0.06528     0.02132
 PY  C   2   0.01177     0.05669    -0.04555     0.02399    -0.00374     0.04821
 PZ  C   2   0.22429    -0.04185    -0.04607    -0.25346     0.01489    -0.02656
  
  S  C   3  -0.08941    -0.24637     0.23487    -0.06863     0.06803    -0.20956
 PX  C   3   0.00351    -0.00285    -0.05266     0.00535    -0.09949    -0.08320
 PY  C   3  -0.00912    -0.03571     0.01916    -0.02259    -0.02549     0.11255
 PZ  C   3  -0.04929    -0.01965     0.06762     0.31274     0.00398     0.05299
  
  S  C   4   0.09650     0.26075    -0.24756     0.07962    -0.08061    -0.16848
 PX  C   4  -0.00545     0.03318     0.01668     0.02196     0.08109     0.05729
 PY  C   4  -0.01187    -0.01485     0.05906     0.00098     0.06806    -0.14725
 PZ  C   4   0.06764     0.00339    -0.08273    -0.31175    -0.01335    -0.03486
  
  S  C   5  -0.09803    -0.17407     0.22547    -0.01706     0.19636     0.18393
 PX  C   5  -0.00799    -0.06927     0.03952    -0.04000    -0.03197     0.04174
 PY  C   5   0.01034     0.00810    -0.02495    -0.00451    -0.05328    -0.00109
 PZ  C   5  -0.22969     0.08098     0.02407     0.26483    -0.03699    -0.00373
  
  S  C   6   0.08925     0.11921    -0.19770    -0.01217    -0.26909    -0.10700
 PX  C   6  -0.01092     0.03375    -0.02840     0.02350    -0.02607     0.01931
 PY  C   6  -0.00341     0.01798    -0.00306     0.01213     0.03332    -0.09117
 PZ  C   6   0.31751    -0.10150    -0.01906    -0.25098     0.04411    -0.00039
  
  S  C   7   0.08610     0.24201    -0.11287     0.05406     0.15790     0.29059
 PX  C   7  -0.00856    -0.01491     0.08155    -0.01557     0.10412    -0.00440
 PY  C   7   0.02515     0.02878     0.02886     0.01054     0.06672     0.01927
 PZ  C   7  -0.15496     0.08900    -0.04212    -0.14986    -0.01973    -0.04312
  
  S  C   8  -0.07523    -0.25055     0.11839    -0.05819    -0.14849     0.26885
 PX  C   8  -0.01116    -0.02232    -0.06557     0.00041    -0.11722     0.01834
 PY  C   8   0.01572     0.03746    -0.05793     0.01500    -0.05231    -0.00974
 PZ  C   8   0.14030    -0.01714     0.04006     0.15482     0.04623    -0.00358
  
  S  C   9   0.09242     0.26622     0.00941     0.04764     0.33025    -0.20199
 PX  C   9   0.00424    -0.00328     0.07639    -0.01125     0.03326     0.08641
 PY  C   9  -0.00036    -0.03029     0.03938    -0.01409    -0.08123    -0.12843
 PZ  C   9  -0.30896     0.08578    -0.02900     0.00256    -0.06519    -0.02432
  
  S  C  10  -0.10371    -0.24985    -0.01662    -0.04154    -0.32894    -0.21371
 PX  C  10   0.00408     0.02937    -0.07062     0.02491     0.05668    -0.06883
 PY  C  10  -0.01859    -0.02096    -0.03958    -0.00246    -0.07995     0.13910
 PZ  C  10   0.30977    -0.16044     0.02583    -0.00804     0.01338     0.02934
  
  S  C  11   0.07605     0.20230     0.14055    -0.01648     0.12849     0.23085
 PX  C  11  -0.01280    -0.03602     0.05686    -0.03470    -0.11334    -0.03164
 PY  C  11   0.00470     0.03082     0.06132    -0.01453    -0.03883     0.01396
 PZ  C  11  -0.13443     0.07305     0.01302     0.15091    -0.03155    -0.03489
  
  S  H  12  -0.04161    -0.10498    -0.07850     0.01311    -0.08272    -0.08232
  
  S  C  13  -0.08682    -0.21501    -0.14548    -0.00489    -0.12977     0.23200
 PX  C  13  -0.01003    -0.00748    -0.09244     0.02085     0.09484     0.01009
 PY  C  13   0.01060     0.05134    -0.02028     0.01940     0.07995    -0.03307
 PZ  C  13   0.12884    -0.02601    -0.01039    -0.15056     0.04342     0.03139
  
  S  H  14  -0.04739    -0.14584     0.07492    -0.03560    -0.11487    -0.14748
  
  S  H  15   0.04552     0.07195    -0.11649    -0.00178    -0.16845     0.09725
  
  S  H  16  -0.03895    -0.08024     0.10941    -0.01723     0.10604    -0.09168
  
  S  H  17   0.05396     0.09121    -0.13168     0.00379    -0.12720    -0.07431
  
  S  H  18  -0.05959    -0.07686     0.12530     0.00949     0.16800     0.09104
  
  S  H  19   0.03701     0.14057    -0.07410     0.03435     0.10632    -0.12854
  
  S  H  20   0.04437     0.11151     0.08607    -0.00010     0.08078    -0.08666
  
  S  C  21   0.06607     0.14426     0.26265    -0.02685    -0.17681     0.20415
 PX  C  21  -0.01808    -0.04718    -0.04279     0.01509    -0.02798    -0.03810
 PY  C  21  -0.00593     0.00661     0.01426    -0.00809    -0.02741    -0.00761
 PZ  C  21   0.22433    -0.10828     0.01503     0.24408    -0.01428    -0.02606
  
  S  C  22  -0.04276    -0.10119    -0.21243     0.01188     0.20871    -0.10619
 PX  C  22   0.01442     0.02858     0.04986    -0.00105    -0.03212     0.00778
 PY  C  22   0.01143     0.00985     0.00879    -0.00074     0.01819     0.08525
 PZ  C  22  -0.29302     0.14577    -0.01098    -0.21950     0.01319     0.01273
  
  S  C  23   0.05186     0.09675     0.20876     0.00511    -0.20269    -0.09106
 PX  C  23   0.00202    -0.03083    -0.02290     0.01064    -0.01333     0.07458
 PY  C  23  -0.00383    -0.02049    -0.03978     0.00708     0.04045    -0.04594
 PZ  C  23   0.28420    -0.15681     0.00231     0.21749    -0.01139    -0.00006
  
  S  C  24  -0.07639    -0.14234    -0.25089     0.00855     0.14972     0.20321
 PX  C  24   0.00328     0.02550     0.00320    -0.01431     0.04968    -0.03243
 PY  C  24   0.03225     0.03374     0.04697     0.00839    -0.00232    -0.03293
 PZ  C  24  -0.20751     0.14150     0.01050    -0.24411     0.01079    -0.01556
  
  S  H  25  -0.04206    -0.08429    -0.17265     0.01364     0.13187    -0.11224
  
  S  H  26   0.02193     0.06201     0.12303    -0.01110    -0.11972     0.07242
  
  S  H  27  -0.03719    -0.05673    -0.12651    -0.00988     0.12337     0.06730
  
  S  H  28   0.03996     0.08197     0.15542    -0.01091    -0.10168    -0.10500
  
  S  C  29  -0.07483    -0.21056    -0.28789     0.06474     0.07973    -0.16874
 PX  C  29   0.00593     0.02524    -0.02257     0.00543     0.07647    -0.05173
 PY  C  29  -0.00201    -0.00674    -0.05274     0.01839     0.05963     0.13406
 PZ  C  29  -0.08371     0.02041    -0.05886    -0.31189     0.04776     0.02361
  
  S  C  30   0.09363     0.21597     0.29418    -0.03944    -0.07679    -0.18729
 PX  C  30  -0.00211    -0.01092     0.05781    -0.02168    -0.08915     0.08078
 PY  C  30  -0.00479    -0.02053    -0.01354    -0.00181    -0.02110    -0.11541
 PZ  C  30   0.08095    -0.06253     0.03388     0.31759    -0.04728    -0.03191




    ROOT NO.   55          56          57          58          59          60

             3.63222     3.72191     3.80261     3.88678     4.23998     4.28911
  
  
  S  C   1  -0.13205     0.32271     0.11869     0.17199    -0.14225     0.03398
 PX  C   1   0.02246    -0.06954    -0.07243     0.07198    -0.13604    -0.00573
 PY  C   1  -0.01727     0.01741     0.03215    -0.06011     0.06884    -0.01939
 PZ  C   1   0.12611     0.00774    -0.03043    -0.00528    -0.00162    -0.00405
  
  S  C   2   0.04095    -0.04370     0.08472    -0.22225     0.33831    -0.00032
 PX  C   2  -0.05329     0.15437     0.09206     0.01976    -0.00403     0.00987
 PY  C   2  -0.01766     0.08409     0.06271     0.00032    -0.03028     0.00037
 PZ  C   2  -0.14881    -0.03522     0.02769     0.00645     0.00069     0.00608
  
  S  C   3   0.06179    -0.25962    -0.23924     0.10309    -0.05378     0.05107
 PX  C   3   0.02934     0.02416     0.02566     0.03063     0.16272     0.06434
 PY  C   3   0.01745    -0.11523    -0.01534    -0.13428     0.11136    -0.02868
 PZ  C   3   0.25024     0.09515    -0.03457    -0.01608    -0.00299    -0.01688
  
  S  C   4  -0.03237     0.29775     0.13099     0.17648    -0.00791     0.05780
 PX  C   4  -0.03588     0.06873     0.05550    -0.08844     0.16855     0.00470
 PY  C   4   0.01681    -0.06372    -0.11163     0.06880     0.06872     0.07551
 PZ  C   4  -0.25416    -0.06791     0.05821     0.00748     0.00644     0.00636
  
  S  C   5  -0.05208    -0.01203     0.04699    -0.22454     0.30996    -0.00603
 PX  C   5   0.03347    -0.16254    -0.08627    -0.03302    -0.05511    -0.00562
 PY  C   5   0.03435    -0.08454    -0.04644    -0.01445     0.01829     0.00293
 PZ  C   5   0.16305     0.02732    -0.04364     0.02393    -0.03887    -0.00108
  
  S  C   6   0.13548    -0.27872    -0.18954     0.08527    -0.15070     0.01670
 PX  C   6   0.01503    -0.00222     0.00839    -0.02348     0.01494    -0.01710
 PY  C   6  -0.02732     0.11245     0.02462     0.12305    -0.14324     0.01467
 PZ  C   6  -0.13419    -0.00367     0.04034    -0.01130     0.01503    -0.00143
  
  S  C   7  -0.08455     0.07876     0.04311    -0.14565    -0.27705    -0.17564
 PX  C   7   0.00161    -0.11512    -0.12109     0.01983    -0.09379     0.01223
 PY  C   7   0.02030    -0.04326    -0.06845     0.02302     0.03569     0.07663
 PZ  C   7  -0.23392    -0.10878     0.03550     0.01437     0.01728     0.03029
  
  S  C   8   0.04826    -0.10815     0.09033    -0.10954    -0.28379    -0.18038
 PX  C   8  -0.01083     0.09874     0.08882     0.07606    -0.00263     0.06268
 PY  C   8  -0.00012     0.07554     0.05720     0.03806    -0.08789    -0.03113
 PZ  C   8   0.22396     0.09863    -0.05897     0.01010     0.03281     0.02128
  
  S  C   9  -0.02085    -0.10892    -0.23140    -0.03831     0.10919    -0.07181
 PX  C   9   0.01950    -0.08105     0.01036    -0.07465    -0.11956    -0.12217
 PY  C   9   0.03666     0.01833     0.08368     0.00677     0.08325    -0.13332
 PZ  C   9  -0.29977    -0.13395     0.07864     0.00573    -0.01335    -0.00324
  
  S  C  10   0.02854     0.13090     0.19273     0.07131     0.13870    -0.07819
 PX  C  10  -0.03616     0.02982    -0.04994    -0.07935     0.01138    -0.17641
 PY  C  10  -0.02404     0.05496     0.10069    -0.03514    -0.12956    -0.02672
 PZ  C  10   0.30874     0.15859    -0.04324    -0.00635     0.00518    -0.03013
  
  S  C  11   0.05246    -0.14134     0.03033     0.10558    -0.06950     0.38329
 PX  C  11   0.03713     0.02273     0.10087     0.08930     0.03465     0.03559
 PY  C  11   0.01379    -0.01613     0.06004     0.05744     0.02020    -0.05374
 PZ  C  11  -0.22992    -0.12195     0.05660     0.01443     0.00167     0.02428
  
  S  H  12  -0.04897     0.09167    -0.02761    -0.04795     0.03239    -0.31836
  
  S  C  13  -0.06086     0.12113    -0.05314     0.04502    -0.06579     0.38619
 PX  C  13  -0.03917     0.00820    -0.14697     0.02189     0.02563    -0.02319
 PY  C  13  -0.02439    -0.02075    -0.08022     0.00340     0.00751     0.05906
 PZ  C  13   0.22681     0.11681    -0.06357    -0.01031     0.00388     0.01817
  
  S  H  14   0.06930    -0.06647    -0.02313     0.09458     0.25958     0.19243
  
  S  H  15   0.08683    -0.21966    -0.07741    -0.12586     0.07101    -0.04163
  
  S  H  16  -0.02850     0.02421    -0.04897     0.12572    -0.26120    -0.01812
  
  S  H  17   0.02906     0.00021    -0.01944     0.12697    -0.24774    -0.01733
  
  S  H  18  -0.08546     0.17467     0.12837    -0.07289     0.08602    -0.02938
  
  S  H  19  -0.04484     0.07175    -0.06386     0.05923     0.26340     0.19070
  
  S  H  20   0.03654    -0.08603     0.03240    -0.00458     0.03331    -0.32137
  
  S  C  21  -0.07733     0.05733    -0.11588     0.32062     0.12854    -0.16636
 PX  C  21  -0.06787     0.08449    -0.16070    -0.06249     0.01979    -0.04497
 PY  C  21  -0.02379     0.04627    -0.06689    -0.07005    -0.02917     0.04513
 PZ  C  21  -0.13061    -0.07607     0.04269    -0.00665    -0.00899     0.02257
  
  S  C  22   0.16336    -0.19387     0.33581    -0.00841    -0.02593     0.00773
 PX  C  22  -0.01394     0.01168    -0.01334     0.01244     0.01116    -0.03500
 PY  C  22   0.01776    -0.04941     0.04546     0.18405     0.06288    -0.07103
 PZ  C  22   0.09740     0.05392    -0.02861    -0.00166     0.00477    -0.01317
  
  S  C  23  -0.13730     0.19039    -0.24730    -0.27057    -0.06358     0.04503
 PX  C  23  -0.04922     0.04021    -0.11811     0.08322     0.04119    -0.06235
 PY  C  23   0.03357    -0.03903     0.07856    -0.04311    -0.01903     0.00269
 PZ  C  23  -0.09730    -0.05497     0.02767     0.01472    -0.00249     0.01375
  
  S  C  24  -0.01238    -0.03645    -0.12273     0.33178     0.12650    -0.18099
 PX  C  24   0.08154    -0.08862     0.17201     0.05211     0.01103    -0.00846
 PY  C  24   0.01748    -0.03074     0.05418     0.04039     0.03479    -0.07085
 PZ  C  24   0.13889     0.07490    -0.02347    -0.04810    -0.00833     0.00139
  
  S  H  25   0.06035    -0.04808     0.08666    -0.23447    -0.11786     0.18892
  
  S  H  26  -0.09377     0.11599    -0.20109    -0.00656     0.00017     0.04411
  
  S  H  27   0.08974    -0.11756     0.15890     0.16433     0.02796     0.01759
  
  S  H  28   0.01345     0.02191     0.09869    -0.22499    -0.10872     0.19579
  
  S  C  29  -0.08980     0.10684    -0.22517    -0.25755    -0.02422    -0.07748
 PX  C  29   0.05190    -0.06467     0.10105    -0.11385    -0.06678     0.11385
 PY  C  29  -0.03231    -0.01040    -0.09167     0.06381    -0.01613     0.14366
 PZ  C  29   0.23974     0.14324    -0.08889    -0.03848    -0.00146    -0.02133
  
  S  C  30   0.12262    -0.10295     0.32153    -0.06113    -0.00533    -0.08518
 PX  C  30  -0.00071     0.02889     0.03987     0.00091    -0.04418     0.18527
 PY  C  30  -0.00826     0.05297    -0.02962    -0.20486    -0.05584     0.03007
 PZ  C  30  -0.24593    -0.13125     0.07216     0.01783    -0.00339     0.01092




    ROOT NO.   61          62          63          64          65          66

             5.24215     5.35220     5.64996     5.71159     6.18177     6.46168
  
  
  S  C   1   0.08505    -0.25839    -0.00312     0.09212     0.06902    -0.01547
 PX  C   1  -0.10510     0.10591     0.00442    -0.16218    -0.16232     0.03800
 PY  C   1  -0.01804     0.28935    -0.00049    -0.02852    -0.04086     0.01327
 PZ  C   1  -0.00681     0.01046     0.00031    -0.00798    -0.00679     0.00152
  
  S  C   2   0.13920    -0.13373    -0.00334     0.19262     0.17934    -0.04441
 PX  C   2   0.07566    -0.17245    -0.00220     0.08366     0.06582    -0.01823
 PY  C   2  -0.00530     0.05485    -0.00020    -0.08623    -0.19401     0.07363
 PZ  C   2   0.00246     0.00404    -0.00022    -0.00119    -0.00601     0.00264
  
  S  C   3  -0.07080     0.03903    -0.00269     0.02362     0.16916    -0.07275
 PX  C   3   0.14150     0.01990    -0.00529     0.10060    -0.06402     0.05815
 PY  C   3   0.02574    -0.08052    -0.00014     0.10229     0.19856    -0.08551
 PZ  C   3  -0.00366    -0.00440     0.00065    -0.00099     0.00118    -0.00160
  
  S  C   4   0.06202     0.05407    -0.00044    -0.03839    -0.18436     0.08813
 PX  C   4  -0.08547    -0.04835     0.00758    -0.13075    -0.12800     0.03738
 PY  C   4  -0.11693     0.05105    -0.00228    -0.04430     0.16024    -0.09048
 PZ  C   4   0.00594     0.00120     0.00012    -0.00519    -0.01491     0.00643
  
  S  C   5  -0.12755    -0.13396     0.01148    -0.18492    -0.17189     0.04482
 PX  C   5  -0.02223    -0.04652    -0.00396     0.05237     0.16766    -0.07818
 PY  C   5  -0.06569    -0.22002     0.00867    -0.13308    -0.18349     0.06581
 PZ  C   5   0.00799     0.00549    -0.00114     0.01756     0.02310    -0.00815
  
  S  C   6  -0.06712    -0.28924     0.00473    -0.08543    -0.06074     0.01002
 PX  C   6   0.03878     0.31749    -0.00562     0.08261     0.09023    -0.02201
 PY  C   6   0.08921    -0.05493    -0.00641     0.13275     0.12817    -0.03255
 PZ  C   6   0.00681     0.03974    -0.00066     0.00994     0.00814    -0.00141
  
  S  C   7  -0.20603    -0.04357     0.00711    -0.11604     0.08740    -0.07388
 PX  C   7  -0.07675    -0.02682    -0.00453     0.00441     0.13882    -0.07169
 PY  C   7   0.10851     0.02111    -0.01864     0.13770    -0.12961     0.20283
 PZ  C   7   0.02271     0.00324    -0.00215     0.01423    -0.01470     0.01630
  
  S  C   8   0.20642    -0.03550    -0.00114     0.12876    -0.09065     0.07095
 PX  C   8  -0.04013     0.00100    -0.00811    -0.12299     0.04265    -0.12191
 PY  C   8   0.11486    -0.02087     0.00190     0.06738    -0.20084     0.17714
 PZ  C   8  -0.02640     0.00450    -0.00049    -0.01359     0.01295    -0.00862
  
  S  C   9   0.01273     0.01695     0.01619     0.15110    -0.03351     0.15165
 PX  C   9   0.15958    -0.01547    -0.00194     0.09567    -0.08044     0.06312
 PY  C   9   0.08354     0.00823     0.02797    -0.12068    -0.01130    -0.18889
 PZ  C   9   0.01545    -0.00176     0.00079    -0.00742    -0.00534    -0.01206
  
  S  C  10  -0.02064     0.01788     0.02866    -0.15405     0.02664    -0.15039
 PX  C  10  -0.15208    -0.00726     0.01963     0.06166     0.05575     0.13418
[...]
  S   H   18    0.1109   -0.0264    0.0486    0.0461   -0.0088    0.2829    0.0040   -0.0836
  S   H   19    0.1919   -0.1890   -0.2902   -0.0539   -0.1070    0.0454   -0.0134    0.0185
  S   H   20   -0.0972   -0.2652   -0.2495    0.2520    0.0568   -0.0133    0.0650   -0.0282
  S   C   21   -0.0797   -0.0559    0.0046   -0.0003    0.0120    0.0005    0.0701   -0.0904
  Px  C   21   -0.1258   -0.1607    0.0937   -0.1608   -0.2604   -0.0000   -0.0805    0.1502
  Py  C   21    0.1185    0.1251   -0.0321    0.0564    0.0870    0.0008    0.2571   -0.2699
  Pz  C   21    0.0071    0.0057    0.0004   -0.0007   -0.0015    0.0000    0.0055   -0.0015
  S   C   22   -0.0352   -0.0157   -0.0277    0.0375    0.0444   -0.0000   -0.0762    0.0288
  Px  C   22   -0.0382   -0.0213   -0.0317    0.0447    0.0439    0.0016    0.4718   -0.0589
  Py  C   22   -0.0724   -0.0552    0.0151   -0.0263   -0.0494    0.0006   -0.0523   -0.1351
  Pz  C   22   -0.0022   -0.0017    0.0009   -0.0015   -0.0025   -0.0000   -0.0019   -0.0040
  S   C   23    0.0489    0.0367   -0.0231    0.0336    0.0440    0.0001    0.0919    0.0666
  Px  C   23    0.0752    0.0505    0.0110   -0.0138   -0.0267   -0.0014   -0.2604   -0.1996
  Py  C   23    0.0091    0.0143   -0.0335    0.0499    0.0592   -0.0006   -0.4362   -0.1712
  Pz  C   23   -0.0026   -0.0018   -0.0019    0.0033    0.0062    0.0001    0.0197    0.0152
  S   C   24    0.0882    0.0624    0.0276   -0.0291   -0.0193    0.0001   -0.0815   -0.0582
  Px  C   24   -0.0438   -0.0385    0.0240   -0.0422   -0.0758   -0.0010   -0.2074   -0.1968
  Py  C   24    0.1290    0.1284    0.1222   -0.2014   -0.2914   -0.0034    0.2347    0.1034
  Pz  C   24    0.0022    0.0048    0.0065   -0.0126   -0.0209   -0.0002    0.0248    0.0147
  S   H   25    0.1637    0.1637   -0.0580    0.0974    0.1471    0.0004    0.1513   -0.1752
  S   H   26    0.0559    0.0341    0.0319   -0.0412   -0.0351   -0.0011   -0.3043    0.0301
  S   H   27   -0.0662   -0.0520    0.0222   -0.0314   -0.0287    0.0010    0.3257    0.1605
  S   H   28   -0.1507   -0.1310   -0.0941    0.1462    0.1961    0.0018   -0.1709   -0.0965
  S   C   29   -0.1537   -0.1905    0.0572   -0.1171   -0.2315   -0.0016    0.0121   -0.0109
  Px  C   29    0.0469    0.0265    0.0080   -0.0376   -0.1197    0.0007   -0.1182    0.2476
  Py  C   29   -0.1110   -0.1616   -0.0271    0.0720    0.1588   -0.0009   -0.0386    0.1783
  Pz  C   29   -0.0141   -0.0183    0.0007   -0.0041   -0.0159   -0.0001   -0.0013    0.0087
  S   C   30    0.1158    0.1244    0.0831   -0.1546   -0.2642   -0.0006   -0.0131   -0.0302
  Px  C   30    0.0715    0.1369   -0.0112    0.0270    0.0785   -0.0006    0.0981   -0.0030
  Py  C   30   -0.1305   -0.1552   -0.0067   -0.0291   -0.1422   -0.0047    0.0727    0.0077
  Pz  C   30   -0.0055   -0.0069    0.0047   -0.0070   -0.0100   -0.0004    0.0089    0.0001


   Root No.      73        74        75        76        77        78        79        80

                73 ????   25 a      23 b      24 b      26 a      25 b      79 ????   80 ????

                 9.369     9.552    10.108    10.718    11.155    11.549    11.814    12.285
  
  S   C    1   -0.0718    0.0588    0.0495   -0.0761   -0.0375    0.0250    0.0111   -0.0029
  Px  C    1   -0.1518    0.2088   -0.0627   -0.2055    0.1583   -0.1583    0.1032   -0.2196
  Py  C    1   -0.1615    0.0418    0.2065   -0.0685   -0.2015    0.1623   -0.0393    0.1348
  Pz  C    1   -0.0050    0.0026    0.0033   -0.0027   -0.0016    0.0009    0.0005   -0.0003
  S   C    2    0.0364   -0.0789    0.0652    0.0241   -0.0822    0.0550    0.0171    0.0170
  Px  C    2   -0.1764    0.2200   -0.0017   -0.2484    0.0725   -0.0969    0.1315   -0.2147
  Py  C    2    0.0827   -0.2326    0.2205   -0.0684   -0.1951    0.0881    0.1517   -0.0875
  Pz  C    2    0.0019   -0.0068    0.0077   -0.0031   -0.0066    0.0026    0.0055   -0.0034
  S   C    3    0.0236   -0.0341    0.0047    0.0570   -0.0300    0.0225   -0.0066    0.0132
  Px  C    3   -0.0179   -0.2048    0.2676   -0.0636    0.0380   -0.0541   -0.2483    0.0193
  Py  C    3    0.0036   -0.0517    0.1404   -0.1321   -0.2668    0.1159    0.3903   -0.2040
  Pz  C    3   -0.0008    0.0006    0.0021   -0.0049   -0.0035    0.0020    0.0067   -0.0039
  S   C    4    0.0057   -0.0488    0.0064    0.0660    0.0320   -0.0322   -0.0038   -0.0145
  Px  C    4    0.2253   -0.0842   -0.2405   -0.0797    0.2264   -0.0784   -0.1615    0.1180
  Py  C    4    0.1766   -0.0821   -0.1369   -0.0083   -0.1569    0.0909    0.4237   -0.1445
  Pz  C    4    0.0096   -0.0059   -0.0077    0.0016   -0.0011    0.0009    0.0125   -0.0043
  S   C    5    0.0847   -0.0825   -0.0639    0.0431    0.0858   -0.0607   -0.0129   -0.0250
  Px  C    5    0.1582   -0.0252   -0.1742   -0.1352    0.1394   -0.0232   -0.1440    0.1382
  Py  C    5   -0.2356    0.2876    0.0829   -0.1950   -0.1394    0.1311   -0.0266    0.1293
  Pz  C    5   -0.0012    0.0023    0.0006   -0.0039   -0.0014    0.0022   -0.0026    0.0043
  S   C    6   -0.0168    0.0822   -0.0602   -0.0726    0.0484   -0.0261   -0.0013   -0.0071
  Px  C    6   -0.0493    0.2347   -0.1514   -0.1621    0.0992   -0.0506    0.0021   -0.0178
  Py  C    6   -0.1300    0.1215    0.1426   -0.1494   -0.2213    0.2186   -0.0886    0.2389
  Pz  C    6   -0.0073    0.0197   -0.0059   -0.0152    0.0005    0.0027   -0.0028    0.0055
  S   C    7    0.0295    0.0644   -0.0891    0.0785   -0.0629    0.0775    0.0357    0.0076
  Px  C    7    0.0148   -0.1681    0.1741    0.0120   -0.0055    0.0237   -0.2315    0.0364
  Py  C    7    0.0766    0.1074   -0.1290    0.2067   -0.1398    0.1915   -0.0467    0.0145
  Pz  C    7    0.0027    0.0084   -0.0104    0.0074   -0.0051    0.0072    0.0047   -0.0005
  S   C    8   -0.1286    0.0170    0.0822    0.0837    0.0399   -0.0678   -0.0376   -0.0032
  Px  C    8   -0.1724   -0.0777    0.0189    0.2235    0.0957   -0.1804    0.1855   -0.0679
  Py  C    8    0.3216   -0.0989   -0.1854   -0.1026   -0.0448    0.0689    0.1881   -0.0543
  Pz  C    8    0.0071   -0.0051   -0.0077   -0.0007    0.0004   -0.0004    0.0100   -0.0024
  S   C    9   -0.0118    0.0351    0.0314   -0.0034    0.0067   -0.0001   -0.0304   -0.0035
  Px  C    9   -0.2753   -0.0631    0.0797    0.2723    0.1474   -0.2265    0.1354   -0.0659
  Py  C    9   -0.1537    0.0018   -0.1558    0.1360    0.1049    0.4041   -0.1197   -0.0253
  Pz  C    9    0.0003   -0.0001   -0.0085    0.0005    0.0019    0.0208   -0.0074    0.0004
  S   C   10   -0.0065    0.0365   -0.0404   -0.0028   -0.0051    0.0066    0.0236    0.0152
  Px  C   10    0.0946    0.0983    0.0833    0.2208   -0.2109   -0.2090    0.0415    0.0389
  Py  C   10    0.0665    0.0020   -0.1449    0.1266   -0.0956    0.4009   -0.1659    0.0224
  Pz  C   10    0.0030    0.0037   -0.0080    0.0075   -0.0058    0.0140   -0.0047    0.0033
  S   C   11   -0.0306   -0.0036   -0.0741   -0.0811    0.0446    0.0488    0.0318    0.0363
  Px  C   11    0.0564    0.1000    0.0209    0.1811   -0.1640   -0.1689    0.0760    0.0759
  Py  C   11   -0.0464    0.0650   -0.1942   -0.1023    0.0022    0.0319    0.1062    0.1619
  Pz  C   11    0.0053    0.0027    0.0084    0.0100   -0.0081   -0.0089   -0.0006   -0.0010
  S   H   12   -0.0425    0.0025   -0.1104   -0.0916    0.0485    0.0785    0.0332    0.0623
  S   C   13    0.1071    0.0439    0.0772   -0.0908   -0.0287   -0.0594   -0.0400   -0.0194
  Px  C   13    0.1241    0.1470    0.1559    0.0055    0.0771    0.0558   -0.1505   -0.1523
  Py  C   13   -0.3083   -0.0770   -0.1319    0.2352    0.1076    0.1808    0.0006   -0.0014
  Pz  C   13   -0.0091   -0.0025   -0.0021    0.0059    0.0022    0.0039   -0.0014   -0.0004
  S   H   14    0.0364    0.0914   -0.1063    0.0868   -0.0673    0.0955    0.0384   -0.0052
  S   H   15   -0.1254    0.0761    0.0901   -0.0917   -0.0587    0.0372    0.0128    0.0048
  S   H   16    0.0973   -0.1900    0.1177    0.0344   -0.1271    0.0773    0.0458    0.0159
  S   H   17    0.1665   -0.1498   -0.0935    0.0560    0.1151   -0.0754   -0.0365   -0.0219
  S   H   18   -0.0329    0.1418   -0.0829   -0.0981    0.0513   -0.0237   -0.0023   -0.0054
  S   H   19   -0.2034    0.0238    0.0938    0.1010    0.0528   -0.0913   -0.0438    0.0104
  S   H   20    0.1904    0.0817    0.1169   -0.1025   -0.0347   -0.0858   -0.0446   -0.0503
  S   C   21   -0.0344   -0.0789    0.0459   -0.0265    0.0952    0.0572    0.0504    0.0199
  Px  C   21   -0.0210   -0.0005   -0.1459   -0.1770   -0.0716    0.0303   -0.0988   -0.2385
  Py  C   21   -0.1350   -0.2792    0.0518   -0.1638    0.1882    0.1400    0.0755   -0.0660
  Pz  C   21   -0.0039   -0.0063   -0.0036   -0.0083    0.0012    0.0033   -0.0016   -0.0084
  S   C   22    0.0478    0.0723    0.0473    0.0686    0.0340    0.0197    0.0185    0.0087
  Px  C   22   -0.1943   -0.2406   -0.1699   -0.1777   -0.0991   -0.0531   -0.0459   -0.0130
  Py  C   22   -0.0227   -0.1162    0.1147   -0.1268    0.3025    0.2560    0.1002   -0.1779
  Pz  C   22   -0.0006   -0.0035    0.0028   -0.0042    0.0073    0.0056    0.0030   -0.0024
  S   C   23    0.0002    0.0464   -0.0349    0.0593   -0.0435   -0.0180   -0.0092   -0.0135
  Px  C   23   -0.0638   -0.2058   -0.0613   -0.2108   -0.1823   -0.1988   -0.0900    0.1751
  Py  C   23    0.0632   -0.0379    0.1794   -0.0500    0.2523    0.1804    0.0859   -0.0787
  Pz  C   23    0.0036    0.0142    0.0010    0.0138    0.0064    0.0090    0.0032   -0.0106
  S   C   24   -0.0477   -0.0798   -0.0603   -0.0324   -0.0905   -0.0549   -0.0467   -0.0188
  Px  C   24   -0.0521   -0.1969   -0.0117   -0.2312   -0.0879   -0.1456   -0.0432    0.2119
  Py  C   24    0.1805    0.1816    0.1853   -0.0656    0.1781    0.0391    0.1000    0.1871
  Pz  C   24    0.0176    0.0222    0.0193    0.0013    0.0233    0.0109    0.0122    0.0112
  S   H   25   -0.0614   -0.1380    0.0632   -0.0347    0.1111    0.0616    0.0631    0.0293
  S   H   26    0.1221    0.1481    0.1083    0.1074    0.0656    0.0358    0.0314    0.0077
  S   H   27   -0.0126    0.0915   -0.0729    0.0973   -0.0697   -0.0272   -0.0163   -0.0174
  S   H   28   -0.1117   -0.1400   -0.1030   -0.0153   -0.1161   -0.0564   -0.0643   -0.0470
  S   C   29   -0.0169   -0.0457   -0.0022   -0.0565    0.0404    0.0240    0.0176    0.0094
  Px  C   29   -0.0058    0.0686   -0.2101   -0.1356   -0.1731   -0.0242   -0.1405   -0.2430
  Py  C   29   -0.0427    0.0576   -0.1385    0.0047    0.0556    0.0114    0.2721    0.3844
  Pz  C   29   -0.0022   -0.0003   -0.0064   -0.0048    0.0035    0.0033    0.0072    0.0082
  S   C   30    0.0147   -0.0303    0.0043   -0.0667   -0.0318   -0.0296   -0.0259   -0.0082
  Px  C   30    0.1957    0.1637    0.2388   -0.0779    0.0586   -0.0093   -0.1841   -0.1587
  Py  C   30    0.0696    0.0257    0.1041   -0.1021    0.1873    0.0114    0.2345    0.4245
  Pz  C   30    0.0102    0.0061    0.0124   -0.0097    0.0133   -0.0006    0.0125    0.0289


   Root No.      81        82        83        84

                81 ????   82 ????   27 a      26 b   

                12.560    12.705    13.297    14.739
  
  S   C    1   -0.0547    0.0373   -0.0025    0.0363
  Px  C    1   -0.2728   -0.0950   -0.1750    0.0885
  Py  C    1    0.0459    0.1521    0.1097    0.0265
  Pz  C    1   -0.0018    0.0009   -0.0003    0.0011
  S   C    2    0.0029    0.0216    0.0133    0.0253
  Px  C    2   -0.3126   -0.0588   -0.1704    0.1313
  Py  C    2   -0.1600    0.0201   -0.0407    0.1153
  Pz  C    2   -0.0059    0.0005   -0.0018    0.0039
  S   C    3    0.0140   -0.0031   -0.0135    0.0252
  Px  C    3   -0.2630    0.0986   -0.2421    0.2252
  Py  C    3   -0.1673   -0.0608    0.0055    0.0913
  Pz  C    3   -0.0035   -0.0012    0.0008    0.0006
  S   C    4    0.0052   -0.0144    0.0051    0.0270
  Px  C    4   -0.1304    0.3021    0.1545    0.2088
  Py  C    4   -0.0721    0.0427    0.2224    0.1214
  Pz  C    4   -0.0042    0.0047    0.0100    0.0080
  S   C    5   -0.0252   -0.0107   -0.0141    0.0258
  Px  C    5   -0.1170    0.3150    0.1558    0.1743
  Py  C    5   -0.0087    0.2101    0.1408    0.0578
  Pz  C    5   -0.0007    0.0070    0.0040    0.0025
  S   C    6   -0.0566    0.0451    0.0113    0.0381
  Px  C    6   -0.1130    0.0828    0.0170    0.0700
  Py  C    6    0.0507    0.3128    0.2232    0.0693
  Pz  C    6   -0.0056    0.0134    0.0066    0.0055
  S   C    7    0.0475   -0.0417   -0.0047    0.0190
  Px  C    7   -0.2302    0.0664   -0.2543    0.2498
  Py  C    7   -0.0474   -0.0671   -0.1408    0.1682
  Pz  C    7    0.0033   -0.0040    0.0010    0.0012
  S   C    8    0.0511   -0.0354   -0.0060    0.0134
  Px  C    8    0.0034    0.1303    0.2593    0.2597
  Py  C    8   -0.1141    0.1111    0.1555    0.1182
  Pz  C    8   -0.0045    0.0072    0.0097    0.0069
  S   C    9    0.0369   -0.0577    0.0013    0.0046
  Px  C    9    0.0499    0.0729    0.2511    0.2705
  Py  C    9   -0.1198   -0.2326    0.1076    0.1575
  Pz  C    9   -0.0072   -0.0089   -0.0003    0.0017
  S   C   10    0.0700   -0.0196   -0.0016    0.0040
  Px  C   10    0.1088    0.1196   -0.2351    0.2855
  Py  C   10   -0.1747   -0.1360   -0.1625    0.1688
  Pz  C   10   -0.0014   -0.0052   -0.0097    0.0104
  S   C   11    0.0454   -0.0357    0.0002   -0.0176
  Px  C   11    0.1788    0.0888   -0.2378    0.2838
  Py  C   11    0.1684   -0.0452   -0.1600    0.1407
  Pz  C   11    0.0025    0.0044   -0.0063    0.0081
  S   H   12    0.0203   -0.0466   -0.0149   -0.0075
  S   C   13    0.0525   -0.0282    0.0012   -0.0171
  Px  C   13    0.0889   -0.2448    0.2532    0.2552
  Py  C   13   -0.0806   -0.1005    0.1154    0.1631
  Pz  C   13   -0.0015   -0.0046    0.0038    0.0052
  S   H   14    0.0223   -0.0472   -0.0010    0.0140
  S   H   15   -0.0500    0.0466    0.0072    0.0332
  S   H   16    0.0113    0.0239    0.0297    0.0153
  S   H   17   -0.0259   -0.0161   -0.0290    0.0149
  S   H   18   -0.0619    0.0498    0.0104    0.0364
  S   H   19    0.0483   -0.0044   -0.0046    0.0116
  S   H   20    0.0607   -0.0094    0.0176   -0.0059
  S   C   21    0.0025    0.0206   -0.0155   -0.0248
  Px  C   21    0.3351    0.0363   -0.0866    0.1688
  Py  C   21    0.1869    0.0696   -0.0945    0.0489
  Pz  C   21    0.0131    0.0026   -0.0042    0.0055
  S   C   22   -0.0541    0.0244    0.0067   -0.0351
  Px  C   22    0.1168   -0.0616   -0.0106    0.0741
  Py  C   22    0.2854    0.1626   -0.1511    0.0649
  Pz  C   22    0.0071    0.0025   -0.0037    0.0023
  S   C   23   -0.0430    0.0371   -0.0051   -0.0342
  Px  C   23   -0.0225   -0.2859    0.1298    0.0936
  Py  C   23    0.1386    0.0889   -0.0762    0.0280
  Pz  C   23    0.0003    0.0156   -0.0065   -0.0048
  S   C   24   -0.0225   -0.0012    0.0121   -0.0282
  Px  C   24    0.0165   -0.3147    0.1245    0.1344
  Py  C   24    0.0710   -0.1774    0.0276    0.1286
  Pz  C   24    0.0071   -0.0073   -0.0011    0.0093
  S   H   25    0.0110    0.0229   -0.0258   -0.0127
  S   H   26   -0.0622    0.0387    0.0013   -0.0379
  S   H   27   -0.0616    0.0431   -0.0004   -0.0385
  S   H   28   -0.0310    0.0122    0.0182   -0.0263
  S   C   29    0.0040   -0.0066    0.0114   -0.0315
  Px  C   29    0.3253    0.0215   -0.0868    0.2041
  Py  C   29    0.0971   -0.0346   -0.2337    0.1398
  Pz  C   29    0.0057   -0.0008   -0.0067    0.0037
  S   C   30    0.0116   -0.0052   -0.0057   -0.0268
  Px  C   30    0.1225   -0.2604    0.2471    0.2220
  Py  C   30    0.0135   -0.2054   -0.0430    0.1134
  Pz  C   30    0.0032   -0.0223    0.0027    0.0130


              NET ATOMIC CHARGES AND DIPOLE CONTRIBUTIONS

  ATOM NO.   TYPE          CHARGE      No. of ELECS.   s-Pop       p-Pop       
    1          C          -0.030363        4.0304     1.10083     2.92953
    2          C          -0.036559        4.0366     1.09940     2.93716
    3          C           0.008354        3.9916     1.07130     2.92034
    4          C           0.010790        3.9892     1.06886     2.92035
    5          C          -0.024825        4.0248     1.08861     2.93621
    6          C          -0.016306        4.0163     1.08923     2.92707
    7          C          -0.027180        4.0272     1.09250     2.93468
    8          C          -0.032767        4.0328     1.10281     2.92996
    9          C           0.011669        3.9883     1.06495     2.92338
   10          C           0.012703        3.9873     1.05942     2.92788
   11          C          -0.033603        4.0336     1.09148     2.94213
   12          H           0.013777        0.9862     0.98622
   13          C          -0.037326        4.0373     1.08913     2.94819
   14          H           0.022724        0.9773     0.97728
   15          H           0.020325        0.9797     0.97967
   16          H           0.029123        0.9709     0.97088
   17          H           0.021842        0.9782     0.97816
   18          H           0.024225        0.9758     0.97578
   19          H           0.019215        0.9808     0.98078
   20          H           0.018019        0.9820     0.98198
   21          C          -0.031401        4.0314     1.10572     2.92568
   22          C          -0.030687        4.0307     1.09359     2.93709
   23          C          -0.032682        4.0327     1.09998     2.93270
   24          C          -0.033555        4.0336     1.09995     2.93361
   25          H           0.029309        0.9707     0.97069
   26          H           0.028280        0.9717     0.97172
   27          H           0.026940        0.9731     0.97306
   28          H           0.028745        0.9713     0.97126
   29          C           0.016690        3.9833     1.05547     2.92784
   30          C           0.024526        3.9755     1.04930     2.92618
 DIPOLE           X         Y         Z       TOTAL
 POINT-CHG.     0.090     0.036    -0.047     0.108
 HYBRID         0.063    -0.134    -0.216     0.261
 SUM            0.154    -0.098    -0.262     0.319


          ATOMIC ORBITAL ELECTRON POPULATIONS

     Atom    s        px        py        pz   
    1  C   1.10083   0.98231   0.94614   1.00108
    2  C   1.09940   0.97551   0.95947   1.00218
    3  C   1.07130   0.97139   0.96971   0.97924
    4  C   1.06886   0.96299   0.97563   0.98173
    5  C   1.08861   0.96779   0.95525   1.01318
    6  C   1.08923   0.94227   0.99136   0.99344
    7  C   1.09250   0.97271   0.94458   1.01739
    8  C   1.10281   0.96301   0.95220   1.01475
    9  C   1.06495   0.96892   0.97426   0.98021
   10  C   1.05942   0.97708   0.96881   0.98199
   11  C   1.09148   0.96981   0.95677   1.01555
   12  H   0.98622
   13  C   1.08913   0.96245   0.95949   1.02625
   14  H   0.97728
   15  H   0.97967
   16  H   0.97088
   17  H   0.97816
   18  H   0.97578
   19  H   0.98078
   20  H   0.98198
   21  C   1.10572   0.97570   0.94808   1.00190
   22  C   1.09359   0.95049   0.98661   0.99999
   23  C   1.09998   0.98326   0.95470   0.99474
   24  C   1.09995   0.98379   0.94330   1.00651
   25  H   0.97069
   26  H   0.97172
   27  H   0.97306
   28  H   0.97126
   29  C   1.05547   0.96699   0.97737   0.98348
   30  C   1.04930   0.97236   0.96960   0.98422

 **********************
 *                    *
 * JOB ENDED NORMALLY *
 *                    *
 **********************



 TOTAL JOB TIME:             1.75 SECONDS

 == MOPAC DONE ==


          MOPAC Job: "./tetraceneTraj/tetracene_362.mop" ended normally on Feb 15, 2023, at 11:23.

rm: cannot remove ./tetraceneTraj/tetracene_362.cim: No such file or directory
rm: cannot remove ./tetraceneTraj/tetracene_362.end: No such file or directory
rm: cannot remove ./tetraceneTraj/tetracene_362.log: No such file or directory
rm: cannot remove ./tetraceneTraj/tetracene_362.temp: No such file or directory
rm: cannot remove ./tetraceneTraj/tetracene_362.ple: No such file or directory
rm: cannot remove ./tetraceneTraj/tetracene_362.sts: No such file or directory
