 *******************************************************************************
 ** Site#:    0         For non-commercial use only    Version 20.173L 64BITS **
 *******************************************************************************
 ** Cite this program as: MOPAC2016, Version: 20.173L, James J. P. Stewart,   **
 ** Stewart Computational Chemistry, web-site: HTTP://OpenMOPAC.net.          **
 *******************************************************************************
 **                                                                           **
 **                                MOPAC2016                                  **
 **                                                                           **
 *******************************************************************************

                              INDO CALCULATION RESULTS

 *******************************************************************************
 *  CALCULATION DONE:                                Wed Feb 15 11:35:33 2023  *
 *  INDO       - The INDO Hamiltonian to be used
 *
 *
 *
 *                 CHARGE ON SYSTEM = 0
 *
 *
 *
 *  C.I.=(N,M) - 3 DOUBLY FILLED LEVELS USED IN A C.I. INVOLVING 6 M.O.'S
 *  T=         - A TIME OF 172800.0 SECONDS REQUESTED
 *  DUMP=N     - RESTART FILE WRITTEN EVERY 7200.0 SECONDS REQUESTED
 *  RELSCF     - DEFAULT SCF CRITERION MULTIPLIED BY 0.0000
 *              (DEFAULT SCF CRITERION = 0.00010)
 *  ALLVEC     - PRINT ALL EIGENVECTORS
 **********
 *  WARNING: Specified print options may not behave as expected with INDO
 **********
 *******************************************************************************
INDO C.I.=(6,3) AllVEC CHARGE=0 RELSCF=0.000001


   ATOM   CHEMICAL          X               Y               Z
  NUMBER   SYMBOL      (ANGSTROMS)     (ANGSTROMS)     (ANGSTROMS)
 
     1       C         18.46201185  *  19.52355819  *  22.29388875  *
     2       C         19.84277661  *  19.44845838  *  22.32646152  *
     3       C         20.66334371  *  20.62147023  *  22.42298520  *
     4       C         19.98605800  *  21.95429702  *  22.41132273  *
     5       C         18.52862247  *  21.98086354  *  22.39024946  *
     6       C         17.79667252  *  20.78374655  *  22.30927214  *
     7       C         22.10185199  *  20.62052086  *  22.57344295  *
     8       C         20.76147196  *  23.11986759  *  22.60333063  *
     9       C         22.15098157  *  23.08843850  *  22.56867527  *
    10       C         22.85905321  *  21.80508105  *  22.61999336  *
    11       C         24.30813331  *  21.83800321  *  22.61228585  *
    12       H         24.84408446  *  20.85814906  *  22.57181400  *
    13       C         22.91980997  *  24.31500795  *  22.54629370  *
    14       H         22.53309179  *  19.62516124  *  22.61455196  *
    15       H         17.90125966  *  18.60671314  *  22.19226725  *
    16       H         20.29263696  *  18.46569901  *  22.34083449  *
    17       H         18.01873296  *  22.96449591  *  22.33723013  *
    18       H         16.70297536  *  20.88479394  *  22.34927318  *
    19       H         20.26151231  *  24.10768483  *  22.60045064  *
    20       H         22.32310444  *  25.28202933  *  22.43724887  *
    21       C         26.50222252  *  23.09029217  *  22.47631867  *
    22       C         27.18163237  *  24.28985343  *  22.50040684  *
    23       C         26.48359382  *  25.56136545  *  22.60430790  *
    24       C         25.10302316  *  25.56047698  *  22.68109917  *
    25       H         27.05010408  *  22.17633917  *  22.54612415  *
    26       H         28.23799859  *  24.16353032  *  22.33888362  *
    27       H         27.07246495  *  26.48403557  *  22.60568063  *
    28       H         24.53019973  *  26.51205454  *  22.79652669  *
    29       C         25.03817730  *  23.05068200  *  22.52319825  *
    30       C         24.33003620  *  24.33704021  *  22.55906798  *
 


          CARTESIAN COORDINATES 

    NO.       ATOM           X           Y           Z

     1         C         18.4620     19.5236     22.2939
     2         C         19.8428     19.4485     22.3265
     3         C         20.6633     20.6215     22.4230
     4         C         19.9861     21.9543     22.4113
     5         C         18.5286     21.9809     22.3902
     6         C         17.7967     20.7837     22.3093
     7         C         22.1019     20.6205     22.5734
     8         C         20.7615     23.1199     22.6033
     9         C         22.1510     23.0884     22.5687
    10         C         22.8591     21.8051     22.6200
    11         C         24.3081     21.8380     22.6123
    12         H         24.8441     20.8581     22.5718
    13         C         22.9198     24.3150     22.5463
    14         H         22.5331     19.6252     22.6146
    15         H         17.9013     18.6067     22.1923
    16         H         20.2926     18.4657     22.3408
    17         H         18.0187     22.9645     22.3372
    18         H         16.7030     20.8848     22.3493
    19         H         20.2615     24.1077     22.6005
    20         H         22.3231     25.2820     22.4372
    21         C         26.5022     23.0903     22.4763
    22         C         27.1816     24.2899     22.5004
    23         C         26.4836     25.5614     22.6043
    24         C         25.1030     25.5605     22.6811
    25         H         27.0501     22.1763     22.5461
    26         H         28.2380     24.1635     22.3389
    27         H         27.0725     26.4840     22.6057
    28         H         24.5302     26.5121     22.7965
    29         C         25.0382     23.0507     22.5232
    30         C         24.3300     24.3370     22.5591

           Empirical Formula: C18 H12  =    30 atoms



      MOLECULAR POINT GROUP   :   C1  


      RHF CALCULATION, NO. OF DOUBLY OCCUPIED LEVELS = 42

 WARNING: INDO only performs single-point calculations
  SCF CRITERION =    0.1000E-09

 Summary of symmetry occupancy in each shell:

 SHELL     
    1   42
    v   42
 TOTAL  84




    ROOT NO.    1           2           3           4           5           6

           -44.54819   -42.95447   -40.55808   -36.95099   -35.55171   -34.03586
  
  
  S  C   1   0.12953    -0.22046    -0.28449    -0.24478     0.04961     0.09945
 PX  C   1   0.03485    -0.05233    -0.05062    -0.01388     0.04989     0.08220
 PY  C   1   0.04409    -0.07124    -0.08234    -0.05271    -0.03201    -0.05484
 PZ  C   1   0.00238    -0.00344    -0.00304    -0.00033     0.00042     0.00014
  
  S  C   2   0.15954    -0.23677    -0.23757    -0.11915     0.17986     0.26387
 PX  C   2  -0.00600     0.03041     0.07617     0.10365     0.04829     0.03799
 PY  C   2   0.06150    -0.08257    -0.06320     0.00010     0.01242     0.00599
 PZ  C   2   0.00411    -0.00465    -0.00139     0.00413     0.00561     0.00585
  
  S  C   3   0.27022    -0.28003    -0.07793     0.15921     0.19378     0.20043
 PX  C   3   0.00072     0.05654     0.14115     0.12222     0.08362     0.04990
 PY  C   3   0.05618    -0.02536     0.06399     0.10137    -0.08894    -0.11824
 PZ  C   3   0.00468    -0.00027     0.01078     0.01437     0.00451     0.00124
  
  S  C   4   0.27560    -0.27907    -0.06166     0.18942    -0.17466    -0.18662
 PX  C   4   0.04914     0.00888     0.13028     0.14475     0.04678     0.08247
 PY  C   4  -0.02614     0.05863     0.08621     0.05789    -0.11817    -0.10383
 PZ  C   4   0.00939    -0.00532     0.00912     0.01758    -0.00731    -0.00626
  
  S  C   5   0.15496    -0.22503    -0.21419    -0.08100    -0.19720    -0.27606
 PX  C   5   0.04890    -0.05238    -0.00889     0.06103    -0.03408    -0.02503
 PY  C   5  -0.03903     0.07115     0.09845     0.08594    -0.01821    -0.01102
 PZ  C   5  -0.00048     0.00233     0.00575     0.00734     0.00051     0.00211
  
  S  C   6   0.12596    -0.21335    -0.27262    -0.22688    -0.08651    -0.13500
 PX  C   6   0.05606    -0.08834    -0.09661    -0.05161    -0.01057    -0.00997
 PY  C   6   0.00097     0.00272     0.01399     0.03199    -0.05292    -0.08998
 PZ  C   6   0.00290    -0.00446    -0.00465    -0.00219    -0.00305    -0.00504
  
  S  C   7   0.23814    -0.13007     0.14693     0.20457     0.33198     0.17998
 PX  C   7  -0.03182     0.06475     0.03648    -0.08038     0.01538    -0.06880
 PY  C   7   0.08147    -0.01805     0.08835     0.05566     0.00608    -0.03987
 PZ  C   7  -0.00479     0.00512     0.00100    -0.00570    -0.00470    -0.00752
  
  S  C   8   0.25296    -0.13375     0.16661     0.23719    -0.30744    -0.16011
 PX  C   8   0.05369     0.02130     0.09799    -0.00008    -0.00855     0.07115
 PY  C   8  -0.07082     0.06603    -0.01574    -0.10134    -0.02737     0.02904
 PZ  C   8  -0.01100     0.00838    -0.00435    -0.01360     0.01331     0.01067
  
  S  C   9   0.33685    -0.00673     0.30702    -0.00130    -0.20725    -0.00095
 PX  C   9   0.01671     0.08460     0.01313    -0.19935     0.08051     0.04904
 PY  C   9  -0.05090     0.04582    -0.04217    -0.09793    -0.14217     0.02525
 PZ  C   9   0.00093     0.00084     0.00205    -0.00118     0.00128     0.00045
  
  S  C  10   0.32493    -0.00438     0.29287    -0.02096     0.24044    -0.00022
 PX  C  10  -0.03640     0.08234    -0.03156    -0.18950     0.05481    -0.06433
 PY  C  10   0.05064     0.04441     0.04472    -0.10122    -0.13178    -0.03502
 PZ  C  10  -0.00860     0.00153    -0.00681    -0.00233    -0.00515    -0.00101
  
  S  C  11   0.22577     0.13347     0.13709    -0.24711     0.28599    -0.19529
 PX  C  11  -0.04913     0.02277    -0.08953     0.01676    -0.01969    -0.07605
 PY  C  11   0.06662     0.06943     0.01149    -0.10339    -0.01991    -0.04119
 PZ  C  11  -0.00523    -0.00346    -0.00238     0.00608    -0.00637     0.00677
  
  S  H  12   0.06671     0.03834     0.03772    -0.06553     0.14437    -0.09443
  
  S  C  13   0.23445     0.13374     0.14743    -0.23374    -0.29279     0.17770
 PX  C  13   0.02910     0.07436    -0.04178    -0.09007     0.02342     0.07600
 PY  C  13  -0.07801    -0.01612    -0.08438     0.06446     0.00155     0.04838
 PZ  C  13   0.00111     0.00106     0.00053    -0.00122     0.00066     0.00084
  
  S  H  14   0.07214    -0.04204     0.03671     0.05507     0.16548     0.09474
  
  S  H  15   0.03469    -0.06245    -0.08900    -0.09228     0.02469     0.05069
  
  S  H  16   0.04846    -0.07075    -0.06947    -0.03503     0.09494     0.13628
  
  S  H  17   0.04595    -0.06382    -0.05551    -0.01345    -0.09760    -0.13320
  
  S  H  18   0.03240    -0.05790    -0.08144    -0.08119    -0.03846    -0.06417
  
  S  H  19   0.07759    -0.03879     0.04965     0.06527    -0.16293    -0.08030
  
  S  H  20   0.06962     0.03577     0.04361    -0.05514    -0.14768     0.08389
  
  S  C  21   0.15271     0.25086    -0.21019     0.12285     0.17031    -0.30967
 PX  C  21  -0.04576    -0.05528     0.00986     0.06330    -0.02381     0.01910
 PY  C  21   0.03714     0.07520    -0.08766     0.09601    -0.02182     0.02611
 PZ  C  21   0.00467     0.00740    -0.00551     0.00167     0.00383    -0.00603
  
  S  C  22   0.12443     0.23418    -0.25203     0.26279     0.06890    -0.13437
 PX  C  22  -0.05377    -0.09384     0.08582    -0.05624    -0.00222    -0.00381
 PY  C  22  -0.00618    -0.00753    -0.00000     0.01806    -0.05324     0.11726
 PZ  C  22   0.00173     0.00299    -0.00265     0.00150    -0.00242     0.00628
  
  S  C  23   0.12054     0.22664    -0.24336     0.25294    -0.05903     0.14744
 PX  C  23  -0.03138    -0.05170     0.04057    -0.00923     0.04667    -0.09641
 PY  C  23  -0.04490    -0.08076     0.07895    -0.06472    -0.02000     0.04356
 PZ  C  23  -0.00134    -0.00265     0.00305    -0.00356    -0.00266     0.00612
  
  S  C  24   0.15131     0.24620    -0.20167     0.11149    -0.16958     0.31472
 PX  C  24   0.00681     0.03406    -0.06903     0.11283     0.03821    -0.02942
 PY  C  24  -0.06000    -0.08883     0.05594     0.00226     0.01701    -0.01648
 PZ  C  24  -0.00655    -0.01099     0.00936    -0.00520     0.00407    -0.00659
  
  S  H  25   0.04757     0.07646    -0.06200     0.03397     0.08994    -0.16186
  
  S  H  26   0.03411     0.06760    -0.07979     0.09893     0.03577    -0.07546
  
  S  H  27   0.03053     0.06080    -0.07231     0.09122    -0.02417     0.06360
  
  S  H  28   0.04457     0.06941    -0.05241     0.02322    -0.08590     0.15191
  
  S  C  29   0.26170     0.29821    -0.06533    -0.18780     0.15369    -0.21313
 PX  C  29  -0.04486     0.01164    -0.11717     0.16388     0.03783    -0.08692
 PY  C  29   0.02925     0.06735    -0.07762     0.05846    -0.10654     0.12197
 PZ  C  29   0.00508     0.00483     0.00124    -0.00707     0.00135    -0.00009
  
  S  C  30   0.26325     0.29981    -0.06491    -0.18560    -0.17071     0.21775
 PX  C  30  -0.00013     0.06232    -0.12836     0.13383     0.07151    -0.04602
 PY  C  30  -0.05339    -0.02573    -0.05780     0.10826    -0.08336     0.14009
 PZ  C  30   0.00176     0.00307    -0.00250     0.00092    -0.00383     0.00814




    ROOT NO.    7           8           9          10          11          12

           -31.94980   -31.42572   -28.88389   -28.27840   -26.81512   -26.16886
  
  
  S  C   1  -0.21240     0.23884     0.17854     0.24338    -0.02677    -0.18441
 PX  C   1  -0.09625    -0.10172     0.09800    -0.16436     0.02190    -0.06499
 PY  C   1   0.08102     0.03573    -0.10630    -0.00747    -0.07194     0.11774
 PZ  C   1   0.00214    -0.00482    -0.00413    -0.00868    -0.00105     0.00732
  
  S  C   2  -0.28336    -0.09357     0.15826    -0.14143     0.10954    -0.02547
 PX  C   2   0.05351    -0.14004    -0.13007    -0.11114     0.07154     0.19405
 PY  C   2   0.03845    -0.07439    -0.07093    -0.09022    -0.09876     0.09799
 PZ  C   2   0.00074    -0.01070    -0.00825    -0.00910     0.00308     0.01398
  
  S  C   3  -0.03108    -0.26843    -0.11509    -0.12154    -0.09144     0.18771
 PX  C   3   0.05027     0.04149    -0.12555     0.16064     0.08738     0.07463
 PY  C   3   0.10002     0.00520     0.02091     0.09585    -0.19469    -0.10827
 PZ  C   3   0.00745     0.00065    -0.01045     0.01636     0.00160     0.00289
  
  S  C   4   0.13316    -0.24263     0.12129    -0.10832    -0.10411    -0.19228
 PX  C   4  -0.10791    -0.00374     0.04903     0.16997    -0.11271     0.04905
 PY  C   4  -0.00554     0.03261     0.12060     0.08236     0.17298    -0.11770
 PZ  C   4  -0.00050    -0.00676     0.01312     0.01275    -0.00183    -0.01201
  
  S  C   5   0.30031    -0.00634    -0.15149    -0.14671     0.12707     0.02118
 PX  C   5  -0.00456    -0.14751     0.13558    -0.12284    -0.04775    -0.19492
 PY  C   5  -0.01036    -0.07423     0.08042    -0.03116     0.10578    -0.10746
 PZ  C   5  -0.00456    -0.00786     0.01041    -0.00042    -0.00171    -0.01094
  
  S  C   6   0.13807     0.28800    -0.20690     0.22647    -0.00729     0.20269
 PX  C   6   0.00315    -0.02590     0.02924    -0.09054    -0.05024    -0.06159
 PY  C   6   0.14433    -0.06380    -0.12764    -0.13886     0.07130     0.11301
 PZ  C   6   0.00730     0.00042    -0.00755    -0.00338     0.00082     0.00755
  
  S  C   7   0.15572     0.02922    -0.23705     0.12513     0.18965     0.02526
 PX  C   7   0.08407     0.16278     0.05336     0.00821     0.10981    -0.19297
 PY  C   7   0.05063     0.10031     0.03210     0.09025    -0.16571    -0.11836
 PZ  C   7   0.00431     0.01275     0.00564     0.00353     0.00504    -0.01652
  
  S  C   8  -0.15891    -0.02496     0.22966     0.12289     0.17191    -0.01141
 PX  C   8  -0.14562     0.13662    -0.06007     0.07541    -0.06601     0.20316
 PY  C   8  -0.08400     0.06349    -0.03222    -0.04933     0.19210     0.11120
 PZ  C   8  -0.00095     0.00982    -0.01226    -0.00252    -0.00262     0.01221
  
  S  C   9  -0.24503     0.20793    -0.00662    -0.01000    -0.08434     0.17482
 PX  C   9   0.07216     0.02983    -0.10612    -0.18241    -0.12040    -0.06019
 PY  C   9  -0.13163    -0.04814    -0.05810    -0.10611     0.21783     0.11843
 PZ  C   9  -0.00092     0.00653     0.00098     0.00191    -0.00424     0.00221
  
  S  C  10   0.17176     0.28132    -0.00145    -0.00544    -0.07260    -0.18789
 PX  C  10   0.06550    -0.00114     0.11007    -0.18307     0.12469    -0.06426
 PY  C  10  -0.12339     0.00797     0.05707    -0.09913    -0.22036     0.10146
 PZ  C  10  -0.00230    -0.00120     0.00218    -0.00159     0.00590    -0.00131
  
  S  C  11   0.15592     0.03372     0.25545    -0.13077     0.18027    -0.00352
 PX  C  11  -0.08108    -0.16530     0.05883     0.09095     0.06970     0.18849
 PY  C  11  -0.04500    -0.08867     0.03142    -0.02898    -0.17127     0.11536
 PZ  C  11  -0.00047     0.00471    -0.00616     0.00046    -0.00228    -0.00785
  
  S  H  12   0.07396     0.01439     0.11961    -0.02320     0.20866    -0.00841
  
  S  C  13  -0.16331    -0.02308    -0.25391    -0.13959     0.15700    -0.01766
 PX  C  13   0.13884    -0.12607    -0.06059     0.02103    -0.11991    -0.19806
 PY  C  13   0.07196    -0.07407    -0.03050     0.09235     0.14468    -0.11654
 PZ  C  13   0.00217     0.00140     0.00277     0.00132    -0.00538    -0.00056
  
  S  H  14   0.06619    -0.00086    -0.11793     0.01521     0.22271     0.03173
  
  S  H  15  -0.11551     0.13093     0.11310     0.17650     0.01613    -0.13584
  
  S  H  16  -0.14533    -0.04134     0.08256    -0.05059     0.13332    -0.01758
  
  S  H  17   0.13952    -0.00211    -0.06658    -0.05589     0.13906     0.00743
  
  S  H  18   0.07281     0.15176    -0.12642     0.15739     0.03008     0.14668
  
  S  H  19  -0.08096    -0.01526     0.10546     0.01323     0.21810    -0.00104
  
  S  H  20  -0.08339    -0.00980    -0.11238    -0.02746     0.19920    -0.00608
  
  S  C  21  -0.25077    -0.09015    -0.15899     0.13482     0.10693    -0.03157
 PX  C  21  -0.06302     0.13015    -0.15244    -0.13976     0.03233    -0.20283
 PY  C  21  -0.02554     0.07155    -0.07810    -0.04214    -0.10688    -0.08836
 PZ  C  21  -0.00221    -0.00456     0.00329     0.00658     0.00250     0.00673
  
  S  C  22  -0.19638     0.21828    -0.19870    -0.23781    -0.04217    -0.17864
 PX  C  22  -0.01840     0.02118    -0.04876    -0.09193     0.03936    -0.08329
 PY  C  22   0.11611     0.09856     0.15178    -0.12768    -0.06201     0.12831
 PZ  C  22   0.00878     0.00068     0.01457     0.00354    -0.00265     0.01686
  
  S  C  23   0.12219     0.28543     0.21512    -0.24263    -0.02026     0.19217
 PX  C  23  -0.10798     0.05403    -0.09488    -0.15777    -0.04670    -0.04890
 PY  C  23   0.05988    -0.00865     0.08615    -0.01059     0.07281     0.07862
 PZ  C  23   0.00853    -0.00325     0.01128     0.00795     0.00676     0.00958
  
  S  C  24   0.25966     0.01471     0.15303     0.13189     0.13110    -0.00607
 PX  C  24   0.01058     0.14195     0.14915    -0.10482    -0.06448     0.19628
 PY  C  24  -0.00010     0.08220     0.07007    -0.09584     0.08575     0.07595
 PZ  C  24  -0.00377     0.00174     0.00178    -0.00519     0.00530     0.00294
  
  S  H  25  -0.12929    -0.04190    -0.08395     0.04791     0.12576    -0.03381
  
  S  H  26  -0.11541     0.11412    -0.13975    -0.16493     0.00673    -0.15329
  
  S  H  27   0.05598     0.15175     0.11997    -0.17521     0.01092     0.12227
  
  S  H  28   0.11923     0.00539     0.06138     0.04781     0.13499    -0.02534
  
  S  C  29  -0.01493    -0.25765     0.13764     0.12782    -0.08127     0.19917
 PX  C  29  -0.09352    -0.02661    -0.03879     0.16317     0.11163     0.05459
 PY  C  29   0.00450    -0.03608    -0.12806     0.09056    -0.16130    -0.08894
 PZ  C  29   0.00500    -0.00266     0.00783    -0.00277    -0.00270     0.00208
  
  S  C  30   0.10947    -0.23216    -0.13023     0.12434    -0.08658    -0.17018
 PX  C  30   0.06046    -0.01992     0.14068     0.16346    -0.06613     0.08881
 PY  C  30   0.07518     0.03057    -0.02798     0.08791     0.18164    -0.12377
 PZ  C  30   0.00793    -0.00114     0.00354     0.00700     0.00493    -0.00586




    ROOT NO.   13          14          15          16          17          18

           -25.17823   -24.00641   -22.90122   -21.63208   -20.58182   -19.34872
  
  
  S  C   1   0.00319    -0.14299    -0.01927    -0.15791    -0.05672    -0.01544
 PX  C   1   0.02372     0.23781    -0.00286     0.00130     0.20204     0.19346
 PY  C   1  -0.14997    -0.00080    -0.19622     0.11575    -0.12044     0.19808
 PZ  C   1  -0.00459     0.00950    -0.00709     0.01212     0.00160     0.01833
  
  S  C   2   0.14021     0.19116     0.11615     0.12044     0.11185     0.04394
 PX  C   2   0.05884    -0.01737     0.07177     0.18295    -0.11662    -0.14006
 PY  C   2  -0.18577    -0.00539    -0.21120     0.06730    -0.13955     0.07259
 PZ  C   2   0.00023    -0.00105    -0.00148     0.01246    -0.01212     0.00125
  
  S  C   3  -0.12010    -0.09821    -0.00382     0.10316    -0.05101    -0.16129
 PX  C   3   0.14211    -0.15602     0.15087    -0.09881    -0.02317    -0.03478
 PY  C   3  -0.16939    -0.09910    -0.02112    -0.12519     0.13868    -0.09068
 PZ  C   3   0.00773    -0.01926     0.01163    -0.01520    -0.00247     0.00385
  
  S  C   4  -0.08446    -0.11410    -0.01717    -0.08835    -0.04623    -0.15191
 PX  C   4  -0.07761    -0.15209     0.08197     0.18071     0.11098    -0.05553
 PY  C   4   0.22909    -0.07054     0.12867     0.02638    -0.09146     0.05038
 PZ  C   4   0.00650    -0.02000     0.01338     0.01098    -0.00464     0.00432
  
  S  C   5   0.16119     0.18584     0.11824    -0.13480     0.10263     0.00633
 PX  C   5  -0.07574    -0.03785    -0.14788    -0.16625    -0.18409    -0.03332
 PY  C   5   0.16862    -0.02607     0.15773    -0.09347    -0.02847    -0.17180
 PZ  C   5  -0.00093    -0.01063    -0.00195    -0.00046    -0.01249    -0.00383
  
  S  C   6  -0.02223    -0.11427     0.01051     0.17440    -0.03697     0.01580
 PX  C   6  -0.09632     0.11578    -0.17383    -0.13047    -0.00143     0.23612
 PY  C   6   0.09139     0.20702     0.12421     0.05332     0.23852     0.04764
 PZ  C   6   0.00017     0.00631     0.00147     0.00815     0.00685     0.00722
  
  S  C   7   0.12975    -0.10963    -0.07442    -0.20561    -0.06826     0.13580
 PX  C   7   0.02746     0.13726    -0.18186    -0.07322     0.02447     0.17036
 PY  C   7  -0.10471     0.09991     0.03823    -0.02607     0.23346     0.00152
 PZ  C   7   0.00167     0.01307    -0.01458    -0.01010     0.00293     0.02651
  
  S  C   8   0.10988    -0.09287    -0.05773     0.21014    -0.07129     0.16541
 PX  C   8  -0.10292     0.15832    -0.04636     0.04965     0.17589     0.07397
 PY  C   8   0.05952     0.06956    -0.17005     0.03289    -0.10855     0.12342
 PZ  C   8  -0.00389     0.01613    -0.00686     0.00222    -0.00060     0.02060
  
  S  C   9  -0.02084     0.22182     0.03139    -0.01216    -0.01754    -0.01163
 PX  C   9   0.01643     0.04146     0.10012    -0.17502    -0.16466    -0.17204
 PY  C   9   0.00259    -0.08390    -0.20464    -0.08418    -0.08452    -0.08835
 PZ  C   9   0.00085     0.01492     0.00258     0.00968    -0.00360     0.02012
  
  S  C  10   0.00644     0.22344     0.00012    -0.01247     0.00054     0.00965
 PX  C  10   0.00532    -0.04238    -0.11828     0.17879    -0.16641    -0.14775
 PY  C  10  -0.01181     0.08408     0.21487     0.08702    -0.11220    -0.10175
 PZ  C  10   0.00175     0.00495    -0.00763     0.00556    -0.00514     0.00989
  
  S  C  11  -0.13062    -0.10549    -0.06261     0.22291     0.07076    -0.14498
 PX  C  11  -0.09481    -0.15177     0.06711    -0.05680     0.19456     0.06482
 PY  C  11   0.06979    -0.06951     0.17784    -0.05576    -0.11940     0.13252
 PZ  C  11   0.00486     0.01014    -0.00595     0.00503    -0.00852    -0.00166
  
  S  H  12  -0.13409    -0.06263    -0.11200     0.11982     0.16937    -0.13297
  
  S  C  13  -0.11025    -0.11874    -0.07016    -0.21027     0.09957    -0.15986
 PX  C  13   0.03490    -0.14155     0.16844     0.07220     0.02229     0.16585
 PY  C  13  -0.10350    -0.09086    -0.04289     0.02993     0.23352     0.00321
 PZ  C  13   0.00102     0.00913     0.00833     0.01337    -0.01343     0.01475
  
  S  H  14   0.13795    -0.07668    -0.10514    -0.10257    -0.17251     0.12071
  
  S  H  15   0.07369    -0.15425     0.10220    -0.15311    -0.03244    -0.21193
  
  S  H  16   0.19709     0.09624     0.20560     0.06843     0.11032    -0.06553
  
  S  H  17   0.19990     0.09084     0.19460    -0.06887     0.09162    -0.09112
  
  S  H  18   0.05332    -0.12038     0.12766     0.18507    -0.00303    -0.16465
  
  S  H  19   0.11916    -0.05387    -0.11529     0.10264    -0.15163     0.13449
  
  S  H  20  -0.12140    -0.06314    -0.11757    -0.10608     0.17288    -0.13655
  
  S  C  21  -0.16333     0.16003     0.09213    -0.14849    -0.09206    -0.02274
 PX  C  21  -0.09779     0.00000     0.12958     0.14411    -0.18585    -0.00517
 PY  C  21   0.17760     0.03599    -0.16348     0.12563    -0.02953    -0.15724
 PZ  C  21  -0.00279     0.00542    -0.00084    -0.00730     0.00080    -0.00679
  
  S  C  22   0.04796    -0.12870    -0.01884     0.16785     0.05303    -0.01146
 PX  C  22  -0.10003    -0.13044     0.16516     0.10649    -0.01227     0.23688
 PY  C  22   0.11171    -0.18159    -0.09205    -0.04059     0.24328     0.03805
 PZ  C  22   0.00722     0.00460    -0.01269    -0.01785     0.00835    -0.02061
  
  S  C  23   0.01104    -0.13844     0.01641    -0.16038     0.05607     0.01435
 PX  C  23   0.06582    -0.23486    -0.00843    -0.01001     0.23360     0.17328
 PY  C  23  -0.15436    -0.02577     0.19969    -0.13491    -0.11763     0.20252
 PZ  C  23  -0.01339     0.01417     0.01321    -0.00972    -0.02571    -0.00300
  
  S  C  24  -0.19748     0.17614     0.11513     0.10818    -0.13736    -0.02718
 PX  C  24   0.08241     0.02885    -0.05641    -0.16185    -0.12218    -0.14401
 PY  C  24  -0.18007    -0.01995     0.19860    -0.09569    -0.14838     0.06966
 PZ  C  24  -0.01448     0.00018     0.02031    -0.00121    -0.01830     0.01202
  
  S  H  25  -0.21580     0.06322     0.18295    -0.09662    -0.09469     0.08021
  
  S  H  26  -0.04631    -0.13656     0.10726     0.16736    -0.00140     0.16761
  
  S  H  27  -0.05233    -0.16666     0.11653    -0.16635     0.04908     0.20630
  
  S  H  28  -0.22607     0.06736     0.18726     0.05082    -0.11157     0.07822
  
  S  C  29   0.10515    -0.09117     0.00214    -0.08471     0.04364     0.14680
 PX  C  29  -0.08868     0.15328    -0.07849    -0.17092     0.12631    -0.08167
 PY  C  29   0.23534     0.09670    -0.13551    -0.01683    -0.08740     0.04566
 PZ  C  29   0.00110    -0.00409     0.00423     0.01527    -0.00611     0.00172
  
  S  C  30   0.11827    -0.08766    -0.01246     0.09687     0.05775     0.15158
 PX  C  30   0.13348     0.17482    -0.14198     0.10953    -0.04535    -0.00957
 PY  C  30  -0.19982     0.08890     0.00294     0.12079     0.14085    -0.09143
 PZ  C  30  -0.00926     0.01071     0.00711     0.02111    -0.00588     0.00425




    ROOT NO.   19          20          21          22          23          24

           -18.51442   -17.28176   -16.73925   -16.59417   -16.03356   -15.21060
  
  
  S  C   1  -0.14399    -0.02655     0.03081     0.10713    -0.06341     0.05229
 PX  C   1   0.03512     0.18505     0.00426    -0.03725    -0.19760     0.07967
 PY  C   1   0.12825    -0.17764    -0.01997    -0.10321    -0.16366     0.10196
 PZ  C   1   0.01791    -0.00285    -0.00830    -0.02261    -0.02472    -0.00291
  
  S  C   2   0.15047    -0.00554     0.00860    -0.06645    -0.00173     0.03837
 PX  C   2   0.13063    -0.19333    -0.01130    -0.04003     0.21423    -0.06543
 PY  C   2  -0.01468    -0.12730     0.14957     0.25045    -0.02473     0.21798
 PZ  C   2   0.00799    -0.01786    -0.00663    -0.00785    -0.00911    -0.00828
  
  S  C   3  -0.02858     0.01880     0.14296     0.19916     0.03731    -0.00597
 PX  C   3  -0.16468    -0.02513    -0.00733     0.00366    -0.21167    -0.10397
 PY  C   3  -0.07275     0.28574    -0.04377    -0.05550     0.03796    -0.12049
 PZ  C   3  -0.01855    -0.00108    -0.01954    -0.01809    -0.04189    -0.03379
  
  S  C   4   0.06091     0.06049    -0.11767    -0.16894     0.12473    -0.02908
 PX  C   4   0.12407     0.20607     0.02170     0.04585    -0.13011     0.13402
 PY  C   4   0.11213    -0.17006    -0.07149    -0.11839    -0.17144     0.12600
 PZ  C   4   0.02320    -0.00604    -0.01526    -0.02224    -0.04160    -0.01524
  
  S  C   5  -0.17594    -0.02251    -0.00614     0.07542    -0.00163    -0.00880
 PX  C   5  -0.00833    -0.17752    -0.07993    -0.16694     0.18230    -0.12441
 PY  C   5  -0.07157    -0.12289     0.14676     0.22323     0.07216     0.23782
 PZ  C   5   0.01484    -0.00959    -0.00648    -0.02008    -0.00561    -0.01936
  
  S  C   6   0.15446    -0.00218    -0.04147    -0.12479    -0.02598    -0.03704
 PX  C   6  -0.18380    -0.06151    -0.05345     0.02760    -0.22458    -0.03890
 PY  C   6  -0.01857     0.25571    -0.04037    -0.02252    -0.03879    -0.12392
 PZ  C   6   0.01122     0.00934    -0.00906    -0.01925    -0.01266    -0.01944
  
  S  C   7  -0.10156     0.04158    -0.02298    -0.05913    -0.06368    -0.02701
 PX  C   7   0.14270     0.05831    -0.06887    -0.12741     0.18126     0.09375
 PY  C   7   0.11303     0.05321     0.27332     0.09083     0.01009    -0.10605
 PZ  C   7   0.00919    -0.00221    -0.02285    -0.02368     0.00780    -0.01106
  
  S  C   8   0.08997     0.02811     0.00673     0.04194    -0.08880     0.01036
 PX  C   8  -0.20204     0.05668    -0.14199     0.05817     0.16185     0.06613
 PY  C   8  -0.05638    -0.00370     0.23650     0.18848     0.03987    -0.22203
 PZ  C   8  -0.01218    -0.01588     0.00799     0.02006    -0.00357    -0.04870
  
  S  C   9  -0.14085    -0.12033    -0.17752    -0.00165     0.10266     0.06805
 PX  C   9   0.06357    -0.11744     0.04696    -0.07096    -0.06054    -0.05666
 PY  C   9  -0.06554     0.22938    -0.05409     0.00699     0.12606    -0.01063
 PZ  C   9  -0.00972    -0.02983    -0.01220     0.01432     0.00254    -0.04179
  
  S  C  10   0.15299    -0.11030     0.18317     0.00749     0.04020    -0.07181
 PX  C  10   0.06595     0.11675     0.01596     0.06542     0.04970    -0.01396
 PY  C  10  -0.07192    -0.23835    -0.10211    -0.01224    -0.09786     0.02483
 PZ  C  10   0.00037    -0.01104    -0.01725     0.00211     0.00597    -0.03095
  
  S  C  11  -0.09738     0.03401    -0.04251     0.03841    -0.07349     0.00420
 PX  C  11  -0.19716    -0.06062    -0.13515    -0.05491    -0.09775     0.04256
 PY  C  11  -0.08596    -0.02160     0.22751    -0.17581    -0.12655    -0.20098
 PZ  C  11   0.00605    -0.00555    -0.01221     0.01273     0.00362    -0.03386
  
  S  H  12  -0.06214     0.01183    -0.26067     0.12969     0.01370     0.17416
  
  S  C  13   0.10325     0.04710     0.01859    -0.07028    -0.08285     0.03090
 PX  C  13   0.13721    -0.04796    -0.14548     0.11953    -0.15986     0.12246
 PY  C  13   0.09721    -0.05274     0.22844    -0.07077    -0.09165    -0.05422
 PZ  C  13  -0.01686    -0.02271    -0.02836     0.01752     0.00901    -0.03074
  
  S  H  14  -0.08347    -0.00042    -0.25831    -0.15258     0.02291     0.10734
  
  S  H  15  -0.17617     0.03092     0.02666     0.14481     0.17833    -0.08916
  
  S  H  16   0.12702     0.02473    -0.12248    -0.24574     0.09766    -0.17940
  
  S  H  17  -0.13436    -0.03520     0.14708     0.27756    -0.02392     0.23049
  
  S  H  18   0.22253     0.06681     0.02318    -0.08615     0.17401     0.00983
  
  S  H  19   0.07518    -0.00784     0.25435     0.14484    -0.08637    -0.19452
  
  S  H  20   0.06077     0.01300     0.25952    -0.14121    -0.04437    -0.08459
  
  S  C  21   0.18121    -0.01979    -0.01718     0.05954    -0.01277     0.03665
 PX  C  21  -0.01755     0.17680    -0.13244     0.15153    -0.14887    -0.12416
 PY  C  21  -0.10116     0.11536     0.13502    -0.17919    -0.08675     0.29487
 PZ  C  21   0.00818    -0.01413    -0.01904     0.01592    -0.02263    -0.04546
  
  S  C  22  -0.15944    -0.02447     0.05653    -0.11278    -0.03166     0.04016
 PX  C  22  -0.17163     0.05354     0.03578    -0.01637     0.22845    -0.11061
 PY  C  22  -0.00376    -0.24995    -0.03500     0.00678     0.03408    -0.16486
 PZ  C  22   0.02546    -0.02235    -0.02188     0.01833    -0.04044    -0.03293
  
  S  C  23   0.14837    -0.00786    -0.06191     0.08823    -0.05811    -0.04196
 PX  C  23   0.06463    -0.21327     0.03464     0.03609     0.19366     0.08169
 PY  C  23   0.13278     0.17297     0.01873     0.10301     0.18645     0.11690
 PZ  C  23   0.00414     0.02070    -0.00638     0.00343    -0.01726    -0.01538
  
  S  C  24  -0.15489    -0.00425     0.01244    -0.06252     0.00689    -0.04879
 PX  C  24   0.10423     0.21711    -0.07439     0.04137    -0.22073    -0.07822
 PY  C  24  -0.02370     0.12606     0.17804    -0.20652    -0.00743     0.25223
 PZ  C  24  -0.01546     0.00225     0.01592    -0.02442     0.00471     0.00753
  
  S  H  25   0.15293    -0.01837    -0.17281     0.23061    -0.00992    -0.25959
  
  S  H  26  -0.21804     0.05371     0.05833    -0.06982     0.17523    -0.06672
  
  S  H  27   0.19198     0.02200    -0.00286     0.13558     0.19612     0.10460
  
  S  H  28  -0.13395    -0.00607     0.17798    -0.20848     0.09073     0.20366
  
  S  C  29  -0.06974     0.04153     0.17003    -0.14055     0.08930     0.02087
 PX  C  29   0.13826    -0.20613     0.03532    -0.04768     0.10888     0.12817
 PY  C  29   0.12371     0.16834    -0.03964     0.12533     0.20447     0.10546
 PZ  C  29  -0.01955    -0.00692    -0.01731     0.01094    -0.01908    -0.06540
  
  S  C  30   0.04451     0.02357    -0.13725     0.17761     0.07217    -0.01911
 PX  C  30  -0.15654     0.02487     0.05601     0.00748     0.22656    -0.14140
 PY  C  30  -0.05513    -0.28075    -0.07160     0.03634    -0.02674    -0.12296
 PZ  C  30  -0.02669    -0.03090    -0.01881     0.00944     0.00563    -0.05646




    ROOT NO.   25          26          27          28          29          30

           -15.00463   -14.77526   -14.61290   -14.48825   -13.90054   -13.52316
  
  
  S  C   1  -0.01883    -0.00432     0.03157     0.01441    -0.04467     0.00707
 PX  C   1  -0.13289    -0.22335    -0.06994    -0.09044    -0.16473     0.02007
 PY  C   1   0.22259    -0.04168    -0.01539     0.05549    -0.12223     0.20473
 PZ  C   1  -0.02223    -0.01283    -0.07613     0.10512    -0.11148    -0.16976
  
  S  C   2   0.06573    -0.07273    -0.03952     0.00884     0.01183     0.02383
 PX  C   2   0.17331     0.17868     0.04842     0.08528     0.19596    -0.01386
 PY  C   2  -0.05863    -0.20186     0.02407     0.02937     0.07668    -0.11807
 PZ  C   2  -0.03321     0.00583    -0.08161     0.14323    -0.10112    -0.19855
  
  S  C   3  -0.04643     0.03154    -0.01768    -0.02465    -0.01306    -0.01164
 PX  C   3   0.06791     0.19807    -0.00157    -0.06603    -0.23330     0.12354
 PY  C   3  -0.13438     0.01429    -0.02877    -0.08204    -0.04739     0.07080
 PZ  C   3  -0.06931     0.02684    -0.13099     0.21107    -0.15411    -0.21718
  
  S  C   4  -0.03283    -0.05394     0.01651    -0.01817    -0.00617     0.02892
 PX  C   4  -0.13207    -0.11037     0.08759    -0.02962    -0.11928     0.09083
 PY  C   4   0.11468    -0.03641     0.06490     0.03155    -0.13943     0.05976
 PZ  C   4  -0.07289     0.01062    -0.13697     0.21316    -0.14379    -0.22688
  
  S  C   5   0.03111     0.08894     0.04328     0.04615     0.03170    -0.01916
 PX  C   5   0.13137     0.03836    -0.08815     0.01013     0.10101    -0.04617
 PY  C   5   0.10409    -0.24960    -0.03183     0.09865     0.02213     0.09205
 PZ  C   5  -0.03690     0.00050    -0.09725     0.12578    -0.09919    -0.19495
  
  S  C   6   0.03296     0.02053    -0.01618    -0.02424    -0.04031     0.04265
 PX  C   6   0.07126     0.27441     0.13598     0.03000    -0.07663     0.08294
 PY  C   6  -0.22954     0.08745     0.03436    -0.10877     0.00664    -0.13265
 PZ  C   6  -0.03878     0.00377    -0.07250     0.09448    -0.09550    -0.18531
  
  S  C   7  -0.00877    -0.05071    -0.04837    -0.02606     0.00745     0.01252
 PX  C   7  -0.02309    -0.22641     0.00392     0.01866     0.25910    -0.06173
 PY  C   7   0.25335     0.06060    -0.24043    -0.02608     0.06387     0.07099
 PZ  C   7  -0.07782    -0.02130    -0.11928     0.21898    -0.04116    -0.12721
  
  S  C   8  -0.06044     0.04631     0.01766     0.00245     0.03627    -0.03546
 PX  C   8   0.03532     0.04521     0.16022     0.15838     0.22747    -0.01419
 PY  C   8  -0.03726     0.12547    -0.17106    -0.16029     0.11428    -0.07029
 PZ  C   8  -0.08060     0.03852    -0.15598     0.20389    -0.04335    -0.14632
  
  S  C   9  -0.00088    -0.01888    -0.01037    -0.02398    -0.00585    -0.01560
 PX  C   9  -0.03328    -0.06585    -0.19144    -0.17893    -0.24340     0.01829
 PY  C   9  -0.03364    -0.06100    -0.12795    -0.06929    -0.07340     0.15057
 PZ  C   9  -0.11341     0.03145    -0.17251     0.27030    -0.01536    -0.03891
  
  S  C  10   0.00263     0.00612     0.01484     0.01227    -0.00366    -0.02371
 PX  C  10  -0.21645     0.06843     0.24370     0.02953    -0.13525     0.07652
 PY  C  10  -0.11282     0.05507     0.13169    -0.00945    -0.14173    -0.09315
 PZ  C  10  -0.11038     0.00970    -0.14682     0.28003    -0.02962    -0.02169
  
  S  C  11   0.00685     0.06758     0.03874     0.04225    -0.01573     0.01547
 PX  C  11   0.20100    -0.05727    -0.23623    -0.02422     0.13398    -0.06279
 PY  C  11  -0.11527    -0.14769     0.16494     0.07806     0.17425    -0.00858
 PZ  C  11  -0.09189     0.00958    -0.10360     0.21021    -0.00231     0.12233
  
  S  H  12   0.17435     0.11530    -0.20877    -0.06143    -0.08773    -0.01653
  
  S  C  13   0.04873    -0.03934    -0.03752     0.02175    -0.02061     0.01190
 PX  C  13  -0.04713     0.11221    -0.10024    -0.06834     0.25972    -0.12015
 PY  C  13   0.07522     0.03162     0.28269     0.23860     0.06617    -0.08189
 PZ  C  13  -0.11276     0.01806    -0.15547     0.17625     0.01699     0.12028
  
  S  H  14  -0.20588    -0.14995     0.16618     0.02623     0.04959    -0.08169
  
  S  H  15  -0.11587     0.13877     0.06830    -0.00122     0.16693    -0.15936
  
  S  H  16   0.14015     0.19398    -0.01670     0.01560     0.02371     0.10101
  
  S  H  17   0.04451    -0.16953     0.03014     0.08836    -0.00312     0.09327
  
  S  H  18  -0.06606    -0.23690    -0.13330    -0.04556     0.04862    -0.07322
  
  S  H  19  -0.06496     0.09969    -0.18590    -0.18068     0.01157    -0.06752
  
  S  H  20   0.10237    -0.04051     0.25372     0.20330    -0.08210    -0.01121
  
  S  C  21  -0.08931     0.07005     0.03736    -0.02007    -0.00194    -0.00442
 PX  C  21   0.07383    -0.00796     0.07466     0.09705     0.13442     0.04284
 PY  C  21   0.01723     0.24238    -0.03320     0.06210     0.05824    -0.05292
 PZ  C  21  -0.07408    -0.00758    -0.06996     0.12648     0.06221     0.23038
  
  S  C  22  -0.01630    -0.00493    -0.05378    -0.02134     0.05297     0.00670
 PX  C  22   0.18348    -0.17923    -0.02542     0.01545    -0.19001    -0.02001
 PY  C  22  -0.13729    -0.17375    -0.03295    -0.13012     0.00824     0.05280
 PZ  C  22  -0.08518     0.00526    -0.05526     0.09228     0.08496     0.22723
  
  S  C  23   0.00371    -0.00410     0.03020     0.02083     0.04367    -0.01473
 PX  C  23  -0.24636     0.15145     0.03453    -0.05177    -0.05593     0.12235
 PY  C  23   0.12552     0.15388     0.08395     0.11099    -0.15781    -0.04853
 PZ  C  23  -0.03937     0.00215    -0.06752     0.10361     0.05656     0.21231
  
  S  C  24  -0.00714    -0.07392    -0.03477    -0.04226    -0.02500     0.01390
 PX  C  24   0.24274    -0.12097    -0.02105     0.08668     0.09535    -0.10243
 PY  C  24  -0.05718     0.11634    -0.11131    -0.05917     0.12486     0.00953
 PZ  C  24  -0.09050     0.01905    -0.10485     0.11032     0.05761     0.24598
  
  S  H  25  -0.02363    -0.15227     0.06944    -0.00909     0.01322     0.07422
  
  S  H  26   0.17973    -0.15480    -0.03958     0.00239    -0.16017    -0.05038
  
  S  H  27  -0.01955     0.18939     0.09902     0.07334    -0.13515     0.01615
  
  S  H  28  -0.16768     0.11172    -0.09613    -0.09013     0.04463     0.09068
  
  S  C  29   0.03554    -0.03794     0.01706     0.03491     0.00896    -0.00466
 PX  C  29  -0.11607     0.05766    -0.07229    -0.10103    -0.14258    -0.03205
 PY  C  29   0.07623     0.09777    -0.01663     0.02310    -0.16713     0.07779
 PZ  C  29  -0.09794    -0.00927    -0.11454     0.22190     0.05310     0.26056
  
  S  C  30   0.05082     0.03094    -0.00394     0.00164     0.00515    -0.01097
 PX  C  30   0.05491    -0.07922     0.12591     0.05988    -0.25817     0.10039
 PY  C  30  -0.11211    -0.05085     0.06245    -0.06774    -0.05711    -0.05660
 PZ  C  30  -0.12545    -0.00082    -0.13786     0.19636     0.03357     0.26900




    ROOT NO.   31          32          33          34          35          36

           -13.06667   -12.87636   -12.21861   -11.78690   -11.65420   -11.47942
  
  
  S  C   1   0.01583     0.00590    -0.00575     0.00575    -0.00152    -0.01426
 PX  C   1  -0.16757    -0.15651    -0.06094    -0.12086     0.02664    -0.13463
 PY  C   1   0.14363    -0.14816     0.16769    -0.01911    -0.10108    -0.01040
 PZ  C   1   0.13070    -0.11138    -0.13701     0.27197    -0.10994    -0.10222
  
  S  C   2  -0.00400    -0.02043    -0.01694    -0.00503     0.04192     0.00994
 PX  C   2   0.13755     0.16854     0.03664     0.10243     0.01900     0.15016
 PY  C   2  -0.11537     0.13487    -0.18615     0.00747     0.17182     0.03336
 PZ  C   2   0.13888    -0.07639    -0.11801     0.20995    -0.07312    -0.05442
  
  S  C   3   0.01536     0.03078     0.00371     0.00096     0.00053    -0.01762
 PX  C   3  -0.03389    -0.10926    -0.07217    -0.13430     0.09113    -0.22327
 PY  C   3   0.05150    -0.13654     0.24193     0.00159    -0.26628     0.01421
 PZ  C   3   0.13960    -0.07845    -0.04891     0.04221    -0.01800    -0.00523
  
  S  C   4  -0.02053    -0.02186     0.01701    -0.00090     0.00245     0.01881
 PX  C   4   0.12677     0.17098     0.13277     0.12896    -0.05649     0.22645
 PY  C   4  -0.02686     0.12819    -0.20716    -0.00432     0.28853     0.00811
 PZ  C   4   0.13932    -0.02748    -0.04633     0.05016     0.01047     0.03732
  
  S  C   5   0.03452     0.01024    -0.02950     0.00268     0.01963    -0.04016
 PX  C   5  -0.13952    -0.19746    -0.10586    -0.13519     0.04428    -0.20820
 PY  C   5   0.08794    -0.18287     0.13885    -0.01704    -0.12146    -0.03669
 PZ  C   5   0.11199    -0.07429    -0.11510     0.18332    -0.05386    -0.05005
  
  S  C   6   0.00297    -0.00001     0.01848    -0.01055     0.00720     0.01749
 PX  C   6   0.17993     0.19219     0.07191     0.09652    -0.00361     0.13525
 PY  C   6  -0.13904     0.19547    -0.14936     0.00505     0.12815     0.04976
 PZ  C   6   0.11307    -0.07863    -0.15110     0.26726    -0.08629    -0.08649
  
  S  C   7  -0.02093    -0.06634    -0.00964     0.00096     0.06129    -0.00512
 PX  C   7   0.02107     0.07568     0.06571     0.14428    -0.05127     0.21107
 PY  C   7   0.10224    -0.03367    -0.06701     0.04698     0.22332     0.01564
 PZ  C   7   0.06166     0.00616     0.06904    -0.11188     0.03335     0.10633
  
  S  C   8   0.03119     0.06712     0.00174    -0.00244     0.04016    -0.02581
 PX  C   8   0.08843    -0.13231     0.00159    -0.07457     0.01157    -0.24733
 PY  C   8  -0.09888    -0.10998     0.09925    -0.01721    -0.22412    -0.03750
 PZ  C   8   0.04679    -0.00825     0.08922    -0.14480     0.01338     0.04483
  
  S  C   9  -0.04022    -0.04145    -0.01139     0.01216    -0.00738    -0.00134
 PX  C   9  -0.11718     0.07772     0.01278     0.07270    -0.04612     0.26627
 PY  C   9   0.20543    -0.06054     0.05043     0.09811     0.30163    -0.00376
 PZ  C   9  -0.01794     0.05344     0.16965    -0.26947     0.08241     0.06532
  
  S  C  10  -0.00968     0.05660     0.00544    -0.00125    -0.00812    -0.00899
 PX  C  10   0.15719     0.00787     0.06533    -0.03974     0.06338    -0.26152
 PY  C  10  -0.20678     0.04025    -0.00353    -0.09728    -0.28353     0.01527
 PZ  C  10  -0.00257     0.06296     0.14939    -0.26485     0.09488     0.09899
  
  S  C  11  -0.02172    -0.07256     0.01620    -0.00114     0.04682    -0.02711
 PX  C  11  -0.16236    -0.05648    -0.04829     0.05031    -0.02996     0.24864
 PY  C  11   0.01862    -0.13802     0.11727     0.12091     0.16240     0.02037
 PZ  C  11  -0.06522     0.07962     0.06469    -0.12026     0.04303     0.02968
  
  S  H  12  -0.09670     0.05253    -0.12637    -0.08652    -0.15432     0.10366
  
  S  C  13   0.01705     0.07933     0.02527     0.02221     0.05258    -0.01039
 PX  C  13   0.02952     0.06896     0.11441    -0.00558    -0.04772    -0.22429
 PY  C  13  -0.12418     0.02772    -0.08748    -0.13135    -0.20057    -0.04241
 PZ  C  13  -0.06368     0.06544     0.11255    -0.08183     0.07596    -0.00703
  
  S  H  14  -0.08740     0.02767     0.08682     0.01285    -0.21257     0.08795
  
  S  H  15  -0.03714     0.21730    -0.10082     0.06036     0.08085     0.08683
  
  S  H  16   0.15377    -0.05930     0.17932     0.03921    -0.14282     0.04430
  
  S  H  17   0.14788    -0.06272     0.16928     0.04398    -0.13338     0.05289
  
  S  H  18  -0.18247    -0.17871    -0.07786    -0.09668     0.01121    -0.13123
  
  S  H  19  -0.10788    -0.00604     0.09062     0.01255    -0.21135     0.08022
  
  S  H  20  -0.10121     0.01887    -0.13940    -0.10376    -0.15338     0.09058
  
  S  C  21   0.01806    -0.02832     0.03475    -0.00117     0.02271    -0.03231
 PX  C  21  -0.00724    -0.24568    -0.15061    -0.03537     0.01907     0.22447
 PY  C  21  -0.20010    -0.11708     0.10717     0.12052     0.06824     0.03405
 PZ  C  21  -0.09051     0.05144    -0.11996     0.15815    -0.09303    -0.05740
  
  S  C  22   0.02032     0.00383    -0.01777     0.00373    -0.00729     0.00664
 PX  C  22  -0.04478     0.26137     0.07464     0.04247    -0.05236    -0.15942
 PY  C  22   0.25640     0.10029    -0.11380    -0.14677    -0.06220    -0.03042
 PZ  C  22  -0.06338     0.02197    -0.17214     0.20256    -0.12942    -0.07481
  
  S  C  23   0.00178    -0.01217     0.00342    -0.01067    -0.00438    -0.01104
 PX  C  23   0.03533    -0.19664    -0.10405     0.00453     0.03381     0.13823
 PY  C  23  -0.24586    -0.05296     0.13504     0.12103     0.06426     0.00569
 PZ  C  23  -0.09409     0.07415    -0.13428     0.22623    -0.13345    -0.12996
  
  S  C  24   0.02278     0.01443     0.01977     0.03329     0.03183     0.00888
 PX  C  24  -0.03266     0.19876     0.06427    -0.01675    -0.06923    -0.15583
 PY  C  24   0.18851     0.06566    -0.14963    -0.18348    -0.10756    -0.01939
 PZ  C  24  -0.06839     0.07948    -0.12384     0.15539    -0.10253    -0.10177
  
  S  H  25   0.16199    -0.03314    -0.16321    -0.11914    -0.05055     0.07321
  
  S  H  26  -0.04378     0.24300     0.09550     0.02506    -0.03492    -0.14349
  
  S  H  27  -0.18746    -0.15328     0.06132     0.10458     0.07235     0.07780
  
  S  H  28   0.17536    -0.02807    -0.17412    -0.12794    -0.06203     0.06492
  
  S  C  29   0.00936     0.03530    -0.00985     0.00252    -0.00340     0.00358
 PX  C  29  -0.01482     0.22229     0.17243     0.04983    -0.00525    -0.24039
 PY  C  29   0.06602     0.10538    -0.20838    -0.18975    -0.17536     0.00289
 PZ  C  29  -0.13602     0.07428    -0.02116     0.05613    -0.00535    -0.00851
  
  S  C  30  -0.01758    -0.03448    -0.00662    -0.00498    -0.00998    -0.00979
 PX  C  30  -0.05508    -0.11082    -0.13497    -0.01095     0.01096     0.23185
 PY  C  30  -0.11335    -0.09721     0.22963     0.20091     0.17294    -0.01828
 PZ  C  30  -0.13352     0.08213     0.01290     0.08565     0.01497    -0.04827




    ROOT NO.   37          38          39          40          41          42

           -10.58793    -9.87317    -9.62846    -8.28968    -8.11410    -6.67867
  
  
  S  C   1  -0.00107    -0.01429    -0.00020    -0.00291     0.01490     0.00459
 PX  C   1   0.00309     0.01783     0.00542     0.00385    -0.01163    -0.00361
 PY  C   1   0.01279     0.01820     0.01691     0.01726    -0.01536    -0.01394
 PZ  C   1  -0.11374    -0.32755    -0.12829    -0.17848     0.30177     0.18213
  
  S  C   2   0.00744     0.00698     0.00617     0.00786    -0.00431    -0.00649
 PX  C   2   0.00947     0.00113     0.00749     0.01240    -0.00277    -0.00949
 PY  C   2   0.00794     0.00038     0.00174     0.00441     0.00068    -0.00453
 PZ  C   2  -0.21678    -0.10450    -0.31354    -0.35630     0.01861     0.22342
  
  S  C   3  -0.00397     0.00009     0.00282     0.00267     0.00296    -0.00012
 PX  C   3   0.01065    -0.01834     0.02761     0.01543     0.04348     0.00597
 PY  C   3   0.00882    -0.00310     0.01868     0.01030    -0.00272     0.00328
 PZ  C   3  -0.20606     0.24885    -0.25120    -0.10385    -0.35034    -0.12794
  
  S  C   4  -0.01283    -0.01698    -0.01907    -0.00951     0.03295    -0.00728
 PX  C   4  -0.00413    -0.02179    -0.01340    -0.00183     0.03172    -0.01284
 PY  C   4  -0.01104    -0.02002    -0.02216    -0.00744     0.04559    -0.01198
 PZ  C   4   0.24343     0.25852     0.21145     0.02150    -0.36179     0.11175
  
  S  C   5   0.01080    -0.00516     0.02053     0.02144    -0.00762    -0.01131
 PX  C   5  -0.01296     0.01365    -0.00931    -0.01117    -0.01652     0.01244
 PY  C   5   0.00446     0.00889     0.00381    -0.00213    -0.00958     0.00397
 PZ  C   5   0.20653    -0.08232     0.33992     0.36264    -0.06529    -0.23176
  
  S  C   6  -0.00409     0.01346    -0.01049    -0.01242    -0.00597     0.00744
 PX  C   6   0.00249    -0.00725    -0.00101    -0.00017     0.00905    -0.00126
 PY  C   6  -0.01050     0.00668    -0.02083    -0.02066     0.00029     0.01230
 PZ  C   6   0.07772    -0.31589     0.20346     0.26217     0.24986    -0.17772
  
  S  C   7  -0.00285     0.00476    -0.00031     0.00457     0.00247    -0.00123
 PX  C   7   0.04457    -0.02627     0.01919    -0.02727    -0.00417     0.04421
 PY  C   7  -0.00945     0.00779    -0.00641    -0.00090     0.00326     0.00154
 PZ  C   7  -0.33125     0.20552    -0.21918     0.21575    -0.01757    -0.37384
  
  S  C   8   0.02699     0.01893     0.01477    -0.01950    -0.00133     0.03333
 PX  C   8  -0.01298    -0.00343    -0.00088     0.01023    -0.01317    -0.01635
 PY  C   8  -0.05097    -0.02236    -0.01671     0.02553    -0.01329    -0.03323
 PZ  C   8   0.35371     0.19592     0.18059    -0.20430     0.02922     0.36080
  
  S  C   9  -0.00991     0.00543     0.00873     0.00835    -0.01279     0.00226
 PX  C   9   0.00838     0.00232    -0.00178    -0.01056     0.01982     0.01342
 PY  C   9   0.00013     0.03164     0.01262    -0.00472     0.02766     0.01171
 PZ  C   9   0.25992    -0.01018    -0.00195    -0.18453     0.38542     0.02401
  
  S  C  10  -0.01501    -0.00050    -0.00584     0.00405     0.00967    -0.00931
 PX  C  10  -0.00021     0.02020     0.00988    -0.00707    -0.01064    -0.01116
 PY  C  10   0.00302    -0.01605    -0.00395     0.00370    -0.00309    -0.00954
 PZ  C  10  -0.28192     0.02202    -0.01655     0.27310     0.32441    -0.01871
  
  S  C  11  -0.01582     0.00004     0.00842     0.01537    -0.00145     0.02081
 PX  C  11  -0.00673    -0.01958    -0.00176     0.01276     0.00663     0.02151
 PY  C  11  -0.00509     0.00976     0.00454     0.01005     0.00455     0.01758
 PZ  C  11  -0.34365    -0.18765     0.22348     0.21087    -0.04222     0.38653
  
  S  H  12   0.00911    -0.01767    -0.01105    -0.00466    -0.00262    -0.01318
  
  S  C  13   0.01491    -0.00847    -0.00486    -0.01199     0.00253    -0.00766
 PX  C  13  -0.03564     0.00056     0.01075     0.01160    -0.02197     0.00406
 PY  C  13   0.03483    -0.03897    -0.02420    -0.01149    -0.01412    -0.02982
 PZ  C  13   0.30065    -0.25646    -0.19309    -0.21730     0.03242    -0.38163
  
  S  H  14   0.01521    -0.01011     0.00551    -0.00124    -0.00858     0.00405
  
  S  H  15  -0.00314    -0.00148    -0.00683    -0.00239    -0.00402    -0.00127
  
  S  H  16  -0.00158     0.00191     0.00117     0.00023    -0.00580     0.00112
  
  S  H  17   0.00468     0.00285     0.00159    -0.00333    -0.00465     0.00349
  
  S  H  18  -0.00275     0.00555     0.00164     0.00236    -0.00671    -0.00089
  
  S  H  19  -0.02771    -0.01213    -0.01140     0.01335    -0.00991    -0.01675
  
  S  H  20   0.02797    -0.02085    -0.01321    -0.00178    -0.00473     0.00049
  
  S  C  21   0.00598    -0.01079    -0.01742     0.02092    -0.01074     0.01638
 PX  C  21   0.02687    -0.01638    -0.02183     0.00825     0.00695     0.00246
 PY  C  21  -0.00887     0.01459     0.00915    -0.00613     0.00356    -0.00368
 PZ  C  21  -0.18914     0.15976     0.35198    -0.33839     0.03891    -0.22639
  
  S  C  22  -0.00761     0.01581     0.01370    -0.01395     0.01345    -0.01276
 PX  C  22  -0.01932     0.05235     0.02944    -0.02603     0.02670    -0.02242
 PY  C  22   0.00686    -0.03730    -0.01324     0.01468    -0.01960     0.01419
 PZ  C  22  -0.07328     0.37051     0.17358    -0.19165     0.26330    -0.19108
  
  S  C  23   0.00732    -0.01006    -0.01101     0.00599    -0.00560     0.00031
 PX  C  23   0.01168     0.02030    -0.01634     0.02367     0.01568     0.02330
 PY  C  23  -0.00963     0.00694     0.01530    -0.01559    -0.00388    -0.01179
 PZ  C  23   0.11032     0.33991    -0.20570     0.25047     0.20942     0.19609
  
  S  C  24   0.00116     0.01451    -0.00474     0.00861     0.00594     0.00849
 PX  C  24   0.00638    -0.00721    -0.01492     0.00810    -0.01032    -0.00009
 PY  C  24  -0.03017    -0.03725     0.04902    -0.04393    -0.00512    -0.02804
 PZ  C  24   0.20016     0.08321    -0.35168     0.33261    -0.04595     0.22126
  
  S  H  25   0.01411    -0.01964    -0.00722    -0.00154    -0.00232    -0.00258
  
  S  H  26  -0.01249     0.00953     0.01129    -0.00487    -0.00489     0.00047
  
  S  H  27   0.00153     0.01547    -0.00010     0.00192     0.00475     0.00396
  
  S  H  28  -0.00668    -0.02009     0.01305    -0.00819    -0.00490    -0.00038
  
  S  C  29   0.00917     0.00831    -0.00053    -0.01295     0.01331    -0.01766
 PX  C  29  -0.04146     0.00841     0.03512    -0.01040    -0.02102     0.00349
 PY  C  29   0.00366    -0.03414     0.00470    -0.01057    -0.01708    -0.00681
 PZ  C  29  -0.22545    -0.24954     0.26499    -0.07530    -0.31721     0.15350
  
  S  C  30  -0.00968     0.00971     0.00333     0.00726     0.00598     0.00614
 PX  C  30   0.02458     0.00816    -0.00393    -0.00587     0.02297     0.00443
 PY  C  30  -0.02125     0.06036     0.01399     0.01065     0.03251     0.01798
 PZ  C  30   0.19217    -0.30640    -0.22055    -0.00709    -0.31352    -0.16011




    ROOT NO.   43          44          45          46          47          48

            -1.08446     0.24974     0.29508     1.26357     1.36574     1.84147
  
  
  S  C   1  -0.00697     0.01015    -0.00442    -0.00339    -0.01099    -0.00374
 PX  C   1   0.01164    -0.00300     0.01840    -0.00977     0.01342     0.00378
 PY  C   1   0.00975    -0.01717     0.01366    -0.00073     0.02427     0.00482
 PZ  C   1  -0.19300     0.23945    -0.25714     0.05623    -0.35079    -0.08626
  
  S  C   2  -0.00499    -0.01228    -0.01285     0.01196     0.00088     0.00459
 PX  C   2  -0.01170    -0.00849    -0.02107     0.01665    -0.00695    -0.00645
 PY  C   2  -0.00640    -0.00819    -0.01273     0.01003    -0.00078     0.00049
 PZ  C   2   0.22375     0.06771     0.34609    -0.28107     0.17222     0.20580
  
  S  C   3   0.00202     0.02588     0.00763    -0.00998    -0.01680    -0.01539
 PX  C   3  -0.01850     0.03275     0.00360    -0.02820    -0.01388     0.01298
 PY  C   3   0.00000     0.02116    -0.00475    -0.00290    -0.01489     0.00133
 PZ  C   3   0.13494    -0.36323    -0.00691     0.30342     0.18661    -0.22165
  
  S  C   4   0.00123    -0.04211     0.01877    -0.00045     0.02462    -0.00076
 PX  C   4   0.00565    -0.02626     0.01738    -0.01004     0.01493     0.01311
 PY  C   4  -0.00310    -0.02496     0.01386    -0.00937     0.01035     0.00353
 PZ  C   4   0.11422     0.34613    -0.12509     0.16012    -0.31271    -0.24327
  
  S  C   5   0.00858     0.01608     0.01013    -0.02073    -0.00930     0.01943
 PX  C   5  -0.00839     0.01871    -0.02225     0.01402    -0.01303    -0.00851
 PY  C   5  -0.00013     0.00383    -0.00030    -0.00254    -0.00280     0.00194
 PZ  C   5   0.23629     0.04392     0.36029    -0.34460    -0.01029     0.21978
  
  S  C   6   0.00663     0.00912     0.00757    -0.00807    -0.01088    -0.00021
 PX  C   6  -0.00122    -0.00558    -0.00131     0.00490     0.00468    -0.00322
 PY  C   6   0.00205     0.01153     0.00069    -0.00404    -0.01300    -0.00295
 PZ  C   6  -0.17929    -0.31032    -0.17862     0.26045     0.26997    -0.10457
  
  S  C   7  -0.00683    -0.01535    -0.01169     0.00158     0.00651     0.02330
 PX  C   7   0.03960     0.00608     0.01934     0.01972     0.00877    -0.02701
 PY  C   7  -0.00200    -0.00696    -0.00570    -0.00098     0.00244     0.01207
 PZ  C   7  -0.36497    -0.04471    -0.21473    -0.24346    -0.13537     0.34450
  
  S  C   8  -0.04049     0.00695    -0.02380    -0.01270     0.02413     0.02953
 PX  C   8   0.00737    -0.00410     0.01200     0.00240    -0.00025    -0.01407
 PY  C   8   0.02770    -0.00451     0.01804     0.00607    -0.00894    -0.01609
 PZ  C   8  -0.35666    -0.03198    -0.19885    -0.13343     0.23725     0.33446
  
  S  C   9   0.01198     0.00534    -0.00580     0.00214    -0.01232     0.00199
 PX  C   9  -0.00771    -0.01025    -0.00808    -0.00340     0.00871     0.01228
 PY  C   9  -0.00729    -0.00578     0.01309    -0.00670     0.00031    -0.02537
 PZ  C   9   0.02523    -0.32135     0.29172    -0.00160    -0.00107    -0.25601
  
  S  C  10   0.00182     0.01582     0.02148    -0.00176    -0.00309    -0.04377
 PX  C  10  -0.01521    -0.00426    -0.00257    -0.00751    -0.00386    -0.00261
 PY  C  10   0.00083     0.00039    -0.00078     0.00190    -0.00018     0.00190
 PZ  C  10   0.01324     0.38763     0.18940     0.00847     0.00975    -0.29808
  
  S  C  11   0.01302    -0.01668    -0.01884     0.01196    -0.00277     0.05137
 PX  C  11   0.02078     0.00117     0.00069     0.01085     0.00172    -0.00140
 PY  C  11   0.00602    -0.00701    -0.00037     0.00037    -0.00337     0.00083
 PZ  C  11   0.37637    -0.00938    -0.20952     0.26082     0.13918     0.33071
  
  S  H  12  -0.00983     0.00864     0.00641    -0.01285     0.00504    -0.03121
  
  S  C  13   0.00097     0.00015    -0.00388     0.01212    -0.00180     0.02944
 PX  C  13  -0.01458     0.00887     0.01017    -0.00055     0.01171    -0.01069
 PY  C  13   0.02467     0.00259    -0.01408     0.01154    -0.01872     0.02141
 PZ  C  13   0.38048    -0.03281    -0.21379     0.14265    -0.27425     0.29894
  
  S  H  14   0.00593     0.00728     0.00024     0.00213    -0.00487    -0.00533
  
  S  H  15   0.00302    -0.01015     0.00078     0.00579     0.01169     0.00145
  
  S  H  16   0.00397     0.00301     0.00590    -0.00417     0.00388    -0.00073
  
  S  H  17  -0.00394    -0.00910    -0.00970     0.01874     0.00715    -0.01529
  
  S  H  18  -0.00360    -0.00574    -0.00659     0.00906     0.01004    -0.00201
  
  S  H  19   0.01950    -0.00043     0.00796     0.01160    -0.01438    -0.01677
  
  S  H  20  -0.00641     0.00274     0.00067    -0.01049     0.01241    -0.01985
  
  S  C  21   0.00519    -0.01140    -0.02200    -0.03329     0.01361    -0.01721
 PX  C  21   0.00509     0.00368     0.00388     0.00654    -0.00479    -0.00071
 PY  C  21  -0.00691    -0.00020     0.01141     0.00919    -0.01136     0.00558
 PZ  C  21  -0.22781     0.03636     0.33295     0.29646    -0.23397     0.17955
  
  S  C  22   0.00860     0.01673    -0.00650     0.00675     0.02484    -0.00116
 PX  C  22   0.02016     0.02125    -0.02975    -0.01280     0.04675    -0.00946
 PY  C  22  -0.00603    -0.01398     0.00371    -0.00573    -0.01351    -0.00038
 PZ  C  22   0.19539     0.20617    -0.24846    -0.07786     0.40198    -0.06744
  
  S  C  23   0.00514    -0.00339    -0.00764    -0.01219    -0.00991    -0.00811
 PX  C  23   0.00757    -0.01975    -0.00644    -0.01501    -0.01792    -0.00583
 PY  C  23  -0.01116     0.01678     0.01066     0.01667     0.01847     0.00575
 PZ  C  23   0.20739    -0.26544    -0.19404    -0.27729    -0.28644    -0.11284
  
  S  C  24  -0.01034     0.01143     0.00956     0.01399     0.02395     0.00626
 PX  C  24  -0.00687     0.00244     0.01323     0.01563    -0.00076     0.00808
 PY  C  24   0.02838    -0.01144    -0.03619    -0.04086    -0.00883    -0.02388
 PZ  C  24  -0.22791     0.05153     0.33612     0.36646     0.01174     0.20481
  
  S  H  25  -0.00602     0.00045     0.01621     0.02273    -0.01770     0.01754
  
  S  H  26  -0.00897    -0.01232     0.00976     0.00103    -0.02394     0.00606
  
  S  H  27  -0.00778     0.00011     0.01113     0.01334    -0.00033     0.01047
  
  S  H  28   0.00085    -0.01087    -0.00129    -0.00660    -0.01733    -0.00030
  
  S  C  29   0.00728     0.02431     0.00502     0.01719     0.00889    -0.00393
 PX  C  29  -0.01350    -0.01450     0.00407    -0.00655    -0.01077    -0.00001
 PY  C  29   0.00145    -0.00578    -0.01265    -0.00547     0.00273     0.01265
 PZ  C  29  -0.15647    -0.32703     0.00317    -0.32612    -0.19349    -0.22330
  
  S  C  30   0.00924    -0.01739    -0.00032    -0.01129    -0.02125    -0.01312
 PX  C  30   0.00953    -0.01233    -0.00759    -0.00059    -0.01283     0.01391
 PY  C  30   0.00824    -0.01373     0.00777     0.01265    -0.02060     0.00929
 PZ  C  30  -0.16174     0.30705    -0.08299    -0.16216     0.35194    -0.20665




    ROOT NO.   49          50          51          52          53          54

             2.38395     2.52478     2.88571     3.15788     3.30580     3.40123
  
  
  S  C   1  -0.05691    -0.08485     0.18640     0.06031    -0.11055     0.17716
 PX  C   1  -0.03268    -0.00950     0.03085    -0.01287     0.04417     0.05319
 PY  C   1  -0.03006     0.00155     0.03548    -0.00908    -0.05646    -0.01160
 PZ  C   1   0.27440    -0.20414    -0.05832     0.24824     0.02601    -0.03341
  
  S  C   2   0.10926     0.11056    -0.24030    -0.03778     0.02740    -0.23566
 PX  C   2   0.03353     0.01272    -0.02142     0.01920    -0.04693    -0.00877
 PY  C   2   0.04124     0.03648    -0.06327    -0.00358    -0.01303    -0.04058
 PZ  C   2  -0.19208     0.16514     0.03805    -0.26455    -0.02780     0.02105
  
  S  C   3  -0.15906    -0.17974     0.30452     0.04608     0.01810     0.20041
 PX  C   3  -0.01577    -0.00370    -0.04672    -0.02901     0.12465     0.01498
 PY  C   3  -0.02165    -0.02585     0.03313    -0.00823    -0.06130    -0.09032
 PZ  C   3   0.04345    -0.05951    -0.04742     0.29868     0.03621    -0.05017
  
  S  C   4   0.15145     0.17139    -0.28787    -0.03370     0.19949     0.07846
 PX  C   4   0.02694     0.01371     0.00919     0.02756    -0.07781    -0.00484
 PY  C   4  -0.00459    -0.01643     0.06731     0.02339     0.02431     0.13809
 PZ  C   4  -0.00568     0.05030     0.03419    -0.29416    -0.03244     0.05074
  
  S  C   5  -0.08550    -0.12777     0.23122     0.06709    -0.25447    -0.05896
 PX  C   5  -0.04414    -0.03638     0.05312    -0.01543    -0.02141    -0.04362
 PY  C   5   0.00534     0.00098    -0.01681    -0.00117     0.02343    -0.02153
 PZ  C   5   0.17585    -0.13065    -0.06762     0.24073     0.04713    -0.02918
  
  S  C   6   0.07290     0.07167    -0.18851    -0.04471     0.22808    -0.03612
 PX  C   6   0.01236     0.02637    -0.03693    -0.01561     0.02310    -0.00351
 PY  C   6   0.01993     0.00570    -0.01220     0.00744     0.03801     0.07214
 PZ  C   6  -0.25777     0.19928     0.04616    -0.24341    -0.01141     0.02781
  
  S  C   7   0.16445     0.18396    -0.15727    -0.03679    -0.24405    -0.10385
 PX  C   7  -0.01799    -0.00551     0.09884     0.02538    -0.08110     0.07005
 PY  C   7   0.03905     0.03787     0.01048    -0.00048    -0.07470     0.01729
 PZ  C   7   0.10982    -0.09774     0.04357    -0.12588    -0.01507     0.07293
  
  S  C   8  -0.15633    -0.16306     0.13368     0.03557    -0.06049    -0.26096
 PX  C   8  -0.00830    -0.03479    -0.07119    -0.01276     0.07456    -0.09078
 PY  C   8   0.03040     0.01412    -0.06234    -0.00997     0.04536    -0.01723
 PZ  C   8  -0.13533     0.12639    -0.05842     0.12920     0.07305     0.00155
  
  S  C   9   0.16572     0.22382     0.00088    -0.00464    -0.10670     0.37200
 PX  C   9   0.01493     0.02726     0.07283     0.02045    -0.07483    -0.01049
 PY  C   9  -0.00821    -0.00794     0.05145     0.02061     0.13565     0.08664
 PZ  C   9   0.29088    -0.21113     0.02384     0.01061    -0.07556     0.06074
  
  S  C  10  -0.19594    -0.21752     0.02302     0.01930     0.37318    -0.03882
 PX  C  10   0.00311     0.00219    -0.07237    -0.01022     0.03688     0.10414
 PY  C  10  -0.00894    -0.02085    -0.04839    -0.01258    -0.03202    -0.15636
 PZ  C  10  -0.24519     0.22328    -0.02380    -0.01365     0.01037    -0.07638
  
  S  C  11   0.17623     0.19346     0.11298    -0.00650    -0.28457    -0.15740
 PX  C  11  -0.02543    -0.02849     0.06662     0.01437     0.10006    -0.05911
 PY  C  11   0.02435     0.02772     0.05741     0.00260     0.02104    -0.04155
 PZ  C  11   0.08296    -0.08868    -0.02597     0.15757    -0.00788     0.06473
  
  S  H  12  -0.09651    -0.11054    -0.07580     0.00053     0.15579     0.06749
  
  S  C  13  -0.15725    -0.21610    -0.13869    -0.04206    -0.05741    -0.33189
 PX  C  13  -0.00128    -0.01536    -0.08308    -0.00807    -0.07440     0.08029
 PY  C  13   0.01476     0.03406    -0.02560    -0.02134    -0.03331     0.05553
 PZ  C  13  -0.12070     0.08135     0.03161    -0.15416     0.06040    -0.02287
  
  S  H  14  -0.08343    -0.10004     0.08792     0.01890     0.12288     0.01611
  
  S  H  15   0.03016     0.05784    -0.11254    -0.04403     0.05760    -0.11525
  
  S  H  16  -0.06061    -0.05389     0.13842     0.01622    -0.04190     0.12386
  
  S  H  17   0.04248     0.07785    -0.14398    -0.05257     0.15131     0.01209
  
  S  H  18  -0.05255    -0.03874     0.11681     0.01720    -0.14733     0.01557
  
  S  H  19   0.08616     0.08807    -0.08506    -0.02693    -0.00012     0.12472
  
  S  H  20   0.09571     0.12464     0.08629     0.03207    -0.00307     0.19907
  
  S  C  21   0.11205     0.11605     0.18294     0.00594    -0.00512    -0.24443
 PX  C  21  -0.05273    -0.05042    -0.05134     0.00989     0.05947     0.03742
 PY  C  21  -0.00924     0.01403     0.01496     0.02547     0.03851    -0.02641
 PZ  C  21  -0.17363     0.17178    -0.04155     0.25361    -0.05188     0.00080
  
  S  C  22  -0.04320    -0.10592    -0.15323    -0.06939    -0.12093     0.22972
 PX  C  22   0.05146     0.00524     0.04645    -0.02210     0.01952    -0.02927
 PY  C  22   0.00488     0.00688    -0.01075    -0.01658    -0.08763    -0.03027
 PZ  C  22   0.25251    -0.18624     0.07911    -0.23053     0.05750    -0.03277
  
  S  C  23   0.05060     0.12420     0.18770     0.09503     0.26354    -0.10448
 PX  C  23  -0.03180    -0.01816    -0.03547     0.00831    -0.03995    -0.05244
 PY  C  23   0.00588    -0.02370    -0.01739    -0.01864     0.00228     0.05887
 PZ  C  23  -0.25004     0.17826    -0.08519     0.22882    -0.06406     0.02429
  
  S  C  24  -0.08344    -0.17429    -0.23691    -0.08281    -0.26870     0.01050
 PX  C  24   0.02912     0.01440     0.01552    -0.02613    -0.02239     0.05534
 PY  C  24   0.01546     0.05887     0.03872     0.02365     0.00733     0.03431
 PZ  C  24   0.18275    -0.13022     0.08913    -0.24311     0.07908    -0.01523
  
  S  H  25  -0.06490    -0.05743    -0.11076     0.00056    -0.02473     0.12693
  
  S  H  26   0.02086     0.07026     0.09055     0.04859     0.06449    -0.15037
  
  S  H  27  -0.03503    -0.07668    -0.11656    -0.05949    -0.17064     0.04932
  
  S  H  28   0.04565     0.09684     0.14420     0.04722     0.15725    -0.04351
  
  S  C  29  -0.17259    -0.20051    -0.24512    -0.00145     0.08210     0.21788
 PX  C  29   0.02687     0.03020     0.00208    -0.00974    -0.01937     0.07224
 PY  C  29   0.00262    -0.01588    -0.06055    -0.02232    -0.13841    -0.07076
 PZ  C  29   0.03981    -0.07798     0.04305    -0.31372     0.06048    -0.03258
  
  S  C  30   0.15522     0.22610     0.27398     0.04430     0.16854     0.07671
 PX  C  30  -0.01091    -0.00697     0.04935    -0.00225     0.01536    -0.16363
 PY  C  30  -0.02664    -0.01844    -0.00534     0.00992     0.11019     0.06621
 PZ  C  30  -0.03029     0.06923    -0.05987     0.31437    -0.06903     0.04074




    ROOT NO.   55          56          57          58          59          60

             3.59847     3.68855     3.82772     3.91994     4.18186     4.30261
  
  
  S  C   1  -0.10000     0.24886    -0.28635    -0.18702    -0.00901     0.13407
 PX  C   1   0.02481    -0.07671     0.07886    -0.10036    -0.01288     0.09305
 PY  C   1  -0.00768     0.06400    -0.05434     0.06227     0.01434    -0.03233
 PZ  C   1  -0.12805    -0.01404     0.04027    -0.00298     0.00083     0.00743
  
  S  C   2   0.02444    -0.01170    -0.00487     0.31122     0.02569    -0.28334
 PX  C   2  -0.04544     0.12402    -0.14895     0.00365     0.00793     0.02158
 PY  C   2  -0.01294     0.04860    -0.06716     0.00385     0.00591     0.06704
 PZ  C   2   0.16647     0.01422    -0.05077     0.02735     0.00398    -0.01497
  
  S  C   3   0.02951    -0.18281     0.25404    -0.17702    -0.05454    -0.02632
 PX  C   3   0.02140    -0.03302    -0.06904    -0.02079    -0.02829    -0.16513
 PY  C   3   0.03247    -0.04578     0.10506     0.17124     0.02312    -0.08103
 PZ  C   3  -0.26728    -0.01236     0.07328    -0.01730    -0.00747    -0.01245
  
  S  C   4  -0.04472     0.11850    -0.28632    -0.19038    -0.02430     0.00285
 PX  C   4  -0.04441     0.10247    -0.05261     0.10885    -0.00126    -0.16904
 PY  C   4  -0.01014    -0.03365     0.07531    -0.11785    -0.05255    -0.10156
 PZ  C   4   0.26481     0.02203    -0.09645    -0.00151    -0.00549    -0.01456
  
  S  C   5  -0.05073     0.13392     0.00044     0.28047     0.01292    -0.29534
 PX  C   5   0.04789    -0.10951     0.15635     0.02717    -0.00682     0.03918
 PY  C   5   0.01596    -0.06297     0.08103     0.03353    -0.00495    -0.06645
 PZ  C   5  -0.15286    -0.02078     0.04363    -0.02760     0.00089     0.03606
  
  S  C   6   0.09419    -0.31073     0.29474    -0.09016    -0.03035     0.04058
 PX  C   6   0.00820    -0.00221    -0.01494    -0.01058     0.00845     0.04595
 PY  C   6  -0.02011     0.03724    -0.08440    -0.14477    -0.00771     0.13837
 PZ  C   6   0.13156    -0.01171    -0.01194    -0.00019    -0.00341    -0.00792
  
  S  C   7  -0.00689     0.16706     0.03924     0.14044     0.09798     0.33057
 PX  C   7  -0.01280    -0.04279     0.15375    -0.07497    -0.02500     0.04232
 PY  C   7   0.00287     0.00270     0.05400    -0.04109    -0.03626    -0.04569
 PZ  C   7   0.24664    -0.01207    -0.04730     0.00373     0.00371    -0.00641
  
  S  C   8   0.02915    -0.12818     0.06568     0.18569     0.11093     0.33816
 PX  C   8   0.01559     0.00160    -0.14619    -0.05854    -0.02099     0.00292
 PY  C   8   0.00596     0.01428    -0.07065    -0.02444     0.01449     0.08912
 PZ  C   8  -0.26481     0.01952     0.03579    -0.04266    -0.00815    -0.04491
  
  S  C   9  -0.04500     0.07958     0.23307    -0.03094     0.03724    -0.13197
 PX  C   9  -0.00432    -0.03694     0.07598     0.09994     0.06731     0.13628
 PY  C   9  -0.00444    -0.05445    -0.07926     0.07544     0.11869    -0.04374
 PZ  C   9   0.33546    -0.01458    -0.05263     0.01940    -0.01212    -0.00394
  
  S  C  10   0.00543    -0.08712    -0.26011     0.03387     0.07986    -0.09623
 PX  C  10   0.00096     0.08944     0.03913     0.09254     0.12930     0.04140
 PY  C  10   0.01557     0.02276    -0.06594     0.05765     0.00557     0.15896
 PZ  C  10  -0.32804     0.02640     0.08623    -0.01611    -0.00960     0.00917
  
  S  C  11  -0.02124    -0.12911     0.01567    -0.16659    -0.29652    -0.03496
 PX  C  11  -0.00535    -0.09745    -0.13257    -0.04197    -0.00280    -0.04212
 PY  C  11  -0.01302    -0.06138    -0.06603    -0.00456     0.08706    -0.00203
 PZ  C  11   0.23442    -0.01656    -0.05561     0.01850     0.03305    -0.00025
  
  S  H  12   0.01730     0.09233    -0.00757     0.11497     0.28846     0.05281
  
  S  C  13   0.05267     0.10154    -0.02010    -0.18853    -0.28608    -0.01365
 PX  C  13   0.01744     0.06710     0.10824    -0.05908     0.07418    -0.03957
 PY  C  13  -0.02029     0.04412     0.07572    -0.06311    -0.07014    -0.03531
 PZ  C  13  -0.23962     0.01445     0.04934     0.00374     0.04646     0.00641
  
  S  H  14   0.00902    -0.10999    -0.03616    -0.08200    -0.10100    -0.28346
  
  S  H  15   0.06609    -0.15037     0.17831     0.12012     0.01325    -0.04383
  
  S  H  16  -0.01050     0.01320     0.01115    -0.18550    -0.00611     0.24881
  
  S  H  17   0.04390    -0.09339     0.00118    -0.18242     0.00174     0.27797
  
  S  H  18  -0.05173     0.19709    -0.19102     0.05632     0.02835     0.02555
  
  S  H  19  -0.01557     0.10184    -0.05013    -0.11947    -0.11266    -0.30046
  
  S  H  20  -0.02866    -0.09110     0.01546     0.13974     0.29647     0.03491
  
  S  C  21   0.01671    -0.03959    -0.04261    -0.23747     0.34616    -0.10540
 PX  C  21   0.04058     0.13793     0.09889    -0.00625     0.03988    -0.01845
 PY  C  21   0.03914     0.08197     0.05206    -0.01577    -0.00908    -0.00083
 PZ  C  21   0.14106    -0.04709    -0.05037    -0.02613     0.04578    -0.01441
  
  S  C  22  -0.12953    -0.26052    -0.16222     0.20175    -0.18059     0.07653
 PX  C  22  -0.00990     0.00109    -0.00413    -0.00923     0.03706    -0.00211
 PY  C  22  -0.03479    -0.11729    -0.06999    -0.06978     0.11295    -0.03769
 PZ  C  22  -0.10040     0.05017     0.04411    -0.00786    -0.00450    -0.00074
  
  S  C  23   0.13737     0.32940     0.18101     0.01434    -0.04620     0.02277
 PX  C  23   0.03224     0.04823     0.04983    -0.10664     0.14821    -0.05215
 PY  C  23  -0.02634    -0.03465    -0.02499     0.07572    -0.06778     0.03399
 PZ  C  23   0.10237    -0.04576    -0.04123     0.00278    -0.01292     0.00076
  
  S  C  24  -0.04185    -0.10448     0.00720    -0.20116     0.31221    -0.10795
 PX  C  24  -0.06337    -0.13616    -0.09759     0.06115    -0.04496     0.01725
 PY  C  24  -0.01813    -0.08735    -0.06777     0.01842     0.05838    -0.01857
 PZ  C  24  -0.14021     0.03922     0.03948     0.01640     0.00813     0.00685
  
  S  H  25  -0.00644     0.01938     0.02788     0.13708    -0.27423     0.07379
  
  S  H  26   0.08457     0.16257     0.10277    -0.13063     0.07333    -0.04576
  
  S  H  27  -0.08612    -0.20745    -0.11621    -0.01750    -0.00657    -0.01247
  
  S  H  28   0.02937     0.07242    -0.00609     0.12163    -0.27578     0.08428
  
  S  C  29   0.06144     0.27434     0.21062     0.11734    -0.02139     0.03414
 PX  C  29  -0.03091    -0.03892    -0.01293     0.10453    -0.18430     0.05092
 PY  C  29   0.01327     0.03151     0.06983    -0.11878    -0.07984    -0.03144
 PZ  C  29  -0.24613     0.06097     0.07927     0.00710    -0.00057     0.00788
  
  S  C  30  -0.06966    -0.20389    -0.19660     0.19839    -0.03129     0.05475
 PX  C  30   0.00960     0.00188    -0.04442    -0.05015    -0.15632     0.01057
 PY  C  30   0.02355     0.12715     0.07229     0.11410    -0.09715     0.05451
 PZ  C  30   0.25020    -0.04836    -0.07048     0.00626    -0.03472    -0.00376




    ROOT NO.   61          62          63          64          65          66

             5.22470     5.55522     5.57655     5.74165     6.17888     6.40916
  
  
  S  C   1  -0.05519    -0.14738    -0.24701    -0.16823     0.06156     0.04035
 PX  C   1   0.09743    -0.00570     0.04995     0.18779    -0.11056    -0.07157
 PY  C   1  -0.03112     0.16614     0.23709     0.06688    -0.01773    -0.01673
 PZ  C   1   0.00323     0.02713     0.04325     0.02489    -0.01007    -0.00674
  
  S  C   2  -0.14098     0.02445    -0.04345    -0.23228     0.12833     0.07929
 PX  C   2  -0.05927    -0.08174    -0.15102    -0.13099     0.05169     0.03502
 PY  C   2   0.02618     0.00370     0.04436     0.16232    -0.16229    -0.13731
 PZ  C   2  -0.00888    -0.00854    -0.01718    -0.01669     0.00533     0.00258
  
  S  C   3   0.05618     0.03019     0.04545    -0.05135     0.12345     0.12467
 PX  C   3  -0.14299     0.04045     0.01153    -0.09345    -0.05349    -0.09592
 PY  C   3  -0.02825     0.01506    -0.01746    -0.14062     0.15359     0.14263
 PZ  C   3  -0.00998     0.00432     0.00201    -0.01328     0.00340    -0.00098
  
  S  C   4  -0.04276    -0.01648    -0.01189     0.07543    -0.14035    -0.14767
 PX  C   4   0.09834    -0.05051    -0.02724     0.12818    -0.07050    -0.05247
 PY  C   4   0.10198     0.02479     0.06543     0.02164     0.12402     0.16449
 PZ  C   4   0.00538    -0.01094    -0.00988     0.01709    -0.01936    -0.01872
  
  S  C   5   0.13188    -0.08973    -0.07058     0.15983    -0.10044    -0.07294
 PX  C   5   0.01653    -0.00169    -0.01129    -0.07286     0.11465     0.13112
 PY  C   5   0.09339    -0.14880    -0.17010     0.10397    -0.12056    -0.11541
 PZ  C   5  -0.01355     0.01727     0.01856    -0.01639     0.01669     0.01663
  
  S  C   6   0.10985    -0.19137    -0.23529     0.04000    -0.04009    -0.01997
 PX  C   6  -0.07852     0.19486     0.24965    -0.02618     0.05039     0.03091
 PY  C   6  -0.07437    -0.02329    -0.07587    -0.15250     0.08448     0.05892
 PZ  C   6   0.00896    -0.02694    -0.03644    -0.00387    -0.00221    -0.00251
  
  S  C   7   0.21496    -0.06015    -0.02654     0.11150     0.07807     0.12459
 PX  C   7   0.06996    -0.01504    -0.00946    -0.03875     0.10023     0.11297
 PY  C   7  -0.06896     0.02825     0.01714    -0.09947    -0.08157    -0.17997
 PZ  C   7   0.00428     0.00126    -0.00004    -0.00634     0.00772     0.00531
  
  S  C   8  -0.20156     0.00293    -0.05866    -0.10917    -0.07325    -0.13383
 PX  C   8   0.02213    -0.04585    -0.01040     0.12447    -0.00982     0.17228
 PY  C   8  -0.08842    -0.01741    -0.05742    -0.05115    -0.12659    -0.27728
 PZ  C   8   0.02598    -0.00160     0.00807     0.02187     0.00738     0.01805
  
  S  C   9   0.02627     0.07359     0.03030    -0.16106     0.02247    -0.20250
 PX  C   9  -0.13836     0.00944    -0.02827    -0.07830    -0.05461    -0.11106
 PY  C   9  -0.09570     0.00106    -0.02235     0.10511    -0.04773     0.12882
 PZ  C   9   0.00516     0.00451     0.00127    -0.01606     0.00263    -0.01985
  
  S  C  10  -0.02467    -0.00762    -0.00690     0.13898    -0.00786     0.11643
 PX  C  10   0.17680     0.02422     0.01699    -0.04949     0.08181    -0.07503
[...]
  S   H   18    0.0602    0.0376   -0.0313   -0.0569   -0.0139    0.2929    0.0496   -0.0035
  S   H   19    0.1194    0.3127    0.1891    0.1751   -0.0822    0.0712   -0.0115    0.1965
  S   H   20   -0.1932    0.2585    0.2259   -0.1171   -0.0283   -0.0261    0.0629   -0.1970
  S   C   21   -0.1650    0.0442   -0.0596    0.0348   -0.0266   -0.0088    0.0625    0.0419
  Px  C   21   -0.1152    0.0395   -0.2078    0.1827   -0.2330    0.0190   -0.1083    0.0040
  Py  C   21    0.1585   -0.0587    0.0823   -0.0662    0.0727   -0.0449    0.3097    0.1905
  Pz  C   21   -0.0213    0.0048   -0.0081    0.0059   -0.0068    0.0003   -0.0009   -0.0001
  S   C   22   -0.0914    0.0336    0.0402   -0.0334    0.0395    0.0131   -0.0934   -0.0647
  Px  C   22   -0.1152    0.0406    0.0213   -0.0204    0.0180   -0.0667    0.4814    0.2259
  Py  C   22   -0.0979    0.0212   -0.0540    0.0420   -0.0529    0.0067   -0.0402    0.0368
  Pz  C   22    0.0222   -0.0076   -0.0021    0.0018   -0.0011    0.0066   -0.0479   -0.0194
  S   C   23    0.0326    0.0010    0.0479   -0.0364    0.0411   -0.0144    0.1007   -0.0085
  Px  C   23    0.1252   -0.0377    0.0076   -0.0046   -0.0012    0.0303   -0.2169    0.1041
  Py  C   23   -0.0343    0.0217    0.0683   -0.0598    0.0712    0.0577   -0.4067   -0.0449
  Pz  C   23   -0.0126    0.0041    0.0032   -0.0036    0.0054    0.0007   -0.0043   -0.0071
  S   C   24    0.1324   -0.0471   -0.0073   -0.0005    0.0121    0.0125   -0.0811    0.0744
  Px  C   24   -0.0442    0.0095   -0.0431    0.0363   -0.0514    0.0270   -0.1894    0.0949
  Py  C   24    0.2469   -0.1385   -0.1607    0.1716   -0.2357   -0.0366    0.2138   -0.2207
  Pz  C   24    0.0190   -0.0101   -0.0130    0.0165   -0.0256   -0.0052    0.0316   -0.0303
  S   H   25    0.2412   -0.0762    0.1762   -0.1415    0.1622   -0.0308    0.2041    0.0975
  S   H   26    0.1458   -0.0515   -0.0212    0.0180   -0.0140    0.0425   -0.3080   -0.1387
  S   H   27   -0.0513    0.0056   -0.0591    0.0460   -0.0479   -0.0390    0.2776   -0.0096
  S   H   28   -0.2459    0.1188    0.1020   -0.1062    0.1375    0.0260   -0.1604    0.1364
  S   C   29   -0.1513    0.0679   -0.1650    0.1515   -0.2158   -0.0013    0.0085    0.0246
  Px  C   29    0.1311   -0.0458    0.0072    0.0270   -0.0827    0.0213   -0.1173   -0.0089
  Py  C   29   -0.1751    0.1104    0.0213   -0.0575    0.1269    0.0061   -0.0369    0.0172
  Pz  C   29   -0.0099    0.0064   -0.0035    0.0053   -0.0100   -0.0018    0.0093    0.0008
  S   C   30    0.2130   -0.1202   -0.1116    0.1324   -0.2068    0.0027   -0.0188    0.0010
  Px  C   30    0.0750   -0.0603    0.0576   -0.0402    0.0588   -0.0203    0.1059   -0.2469
  Py  C   30   -0.1603    0.0840   -0.0694    0.0843   -0.1644   -0.0174    0.0839   -0.0933
  Pz  C   30    0.0069   -0.0095   -0.0178    0.0133   -0.0108   -0.0013    0.0060   -0.0092


   Root No.      73        74        75        76        77        78        79        80

                73 A      74 A      75 A      76 A      77 A      78 A      79 A      80 A   

                 9.369     9.528    10.191    10.712    11.113    11.597    11.816    12.154
  
  S   C    1    0.0343   -0.0690    0.0454   -0.0796   -0.0378    0.0242    0.0178    0.0151
  Px  C    1    0.1623   -0.1954   -0.0461   -0.1834    0.1393   -0.0718   -0.1742   -0.1778
  Py  C    1   -0.0028   -0.1228    0.1993   -0.1053   -0.2080    0.1128    0.1676    0.1641
  Pz  C    1    0.0060   -0.0135    0.0074   -0.0117   -0.0036    0.0017    0.0007    0.0006
  S   C    2   -0.0850    0.0625    0.0601    0.0192   -0.0851    0.0609    0.0402    0.0245
  Px  C    2    0.1497   -0.1986    0.0053   -0.2285    0.0560    0.0007   -0.1430   -0.1667
  Py  C    2   -0.2662    0.1235    0.1815   -0.0750   -0.1901    0.1654    0.0059   -0.0441
  Pz  C    2   -0.0033   -0.0027    0.0076   -0.0103   -0.0068    0.0076   -0.0042   -0.0077
  S   C    3   -0.0018    0.0418   -0.0080    0.0670   -0.0293    0.0220    0.0226    0.0144
  Px  C    3   -0.2696    0.0645    0.2619   -0.1022   -0.0147   -0.2249    0.0804    0.1383
  Py  C    3   -0.0606    0.0008    0.0841   -0.1135   -0.2441    0.3761   -0.0970   -0.2153
  Pz  C    3   -0.0255    0.0065    0.0254   -0.0130   -0.0087   -0.0100    0.0069    0.0080
  S   C    4   -0.0356    0.0334    0.0056    0.0651    0.0200   -0.0158   -0.0218   -0.0197
  Px  C    4   -0.0361    0.1172   -0.2394   -0.0911    0.2460   -0.1924    0.0539    0.1742
  Py  C    4    0.0120    0.1153   -0.1671    0.0282   -0.1239    0.3998   -0.1109   -0.2031
  Pz  C    4   -0.0055    0.0182   -0.0236    0.0028    0.0076    0.0144   -0.0093   -0.0065
  S   C    5   -0.0661    0.0714   -0.0534    0.0413    0.0815   -0.0622   -0.0363   -0.0179
  Px  C    5    0.0122    0.0449   -0.1718   -0.1563    0.1688   -0.1544    0.0947    0.2106
  Py  C    5    0.2547   -0.2370    0.0601   -0.1904   -0.1169    0.0836    0.1208    0.1395
  Pz  C    5    0.0067   -0.0055   -0.0023   -0.0097    0.0015   -0.0025    0.0064    0.0107
  S   C    6    0.0794   -0.0443   -0.0587   -0.0602    0.0550   -0.0300   -0.0161    0.0027
  Px  C    6    0.2515   -0.1102   -0.1736   -0.1322    0.1329   -0.0660   -0.0357    0.0032
  Py  C    6    0.0845   -0.1301    0.1270   -0.1770   -0.2020    0.1129    0.2438    0.2744
  Pz  C    6    0.0073   -0.0073    0.0024   -0.0101   -0.0057    0.0030    0.0094    0.0114
  S   C    7    0.1106    0.0079   -0.0745    0.0890   -0.0322    0.0592    0.0417    0.0002
  Px  C    7   -0.1823    0.0889    0.1693   -0.0027   -0.0289   -0.1782    0.1362    0.1589
  Py  C    7    0.3109    0.0823   -0.1016    0.2562   -0.1062    0.0617    0.1873    0.0610
  Pz  C    7   -0.0209    0.0082    0.0194   -0.0041   -0.0016   -0.0198    0.0106    0.0139
  S   C    8   -0.0228   -0.0441    0.0970    0.0779    0.0199   -0.0731   -0.0479   -0.0125
  Px  C    8   -0.0803    0.0262    0.0295    0.2127    0.0746    0.0243   -0.2098   -0.0959
  Py  C    8    0.0082    0.1534   -0.2305   -0.0835   -0.0023    0.1842    0.0004   -0.0538
  Pz  C    8    0.0007    0.0192   -0.0308   -0.0071   -0.0001    0.0246   -0.0012   -0.0049
  S   C    9    0.0133   -0.0383    0.0398   -0.0166   -0.0085   -0.0269   -0.0058   -0.0121
  Px  C    9   -0.1105   -0.0236    0.1108    0.2506    0.1101   -0.0519   -0.2367   -0.1036
  Py  C    9   -0.0810   -0.0664   -0.1165    0.1452    0.1528    0.1110    0.3952   -0.0302
  Pz  C    9    0.0030   -0.0006    0.0050   -0.0081   -0.0039   -0.0063   -0.0086    0.0033
  S   C   10   -0.0049   -0.0430   -0.0463   -0.0095    0.0083    0.0329    0.0065   -0.0064
  Px  C   10    0.2783    0.0723    0.0832    0.2380   -0.2229   -0.0925   -0.1884    0.0930
  Py  C   10    0.1124    0.0851   -0.1247    0.1503   -0.0314    0.0819    0.4176    0.0936
  Pz  C   10    0.0066    0.0047    0.0029    0.0051   -0.0049   -0.0006   -0.0062    0.0019
  S   C   11   -0.1033   -0.0664   -0.0811   -0.0721    0.0490    0.0659    0.0146    0.0106
  Px  C   11    0.1895    0.0105    0.0202    0.1941   -0.1627   -0.0278   -0.1820    0.1023
  Py  C   11   -0.2365   -0.2161   -0.2063   -0.0840    0.0267    0.1374   -0.0566    0.1108
  Pz  C   11    0.0023    0.0068    0.0089   -0.0010    0.0025   -0.0068    0.0066   -0.0062
  S   H   12   -0.1674   -0.1070   -0.1068   -0.0805    0.0610    0.0803    0.0280    0.0329
  S   C   13    0.0471   -0.0207    0.0675   -0.0835   -0.0428   -0.0602   -0.0274   -0.0327
  Px  C   13    0.0308   -0.1498    0.1512    0.0234    0.0497   -0.1037    0.1342   -0.1996
  Py  C   13   -0.1090   -0.0104   -0.0724    0.2202    0.1269    0.0729    0.1444   -0.0151
  Pz  C   13    0.0062   -0.0014    0.0072   -0.0086   -0.0055   -0.0065   -0.0038   -0.0034
  S   H   14    0.2109    0.0240   -0.0963    0.1225   -0.0512    0.0892    0.0652   -0.0129
  S   H   15    0.0500   -0.1284    0.0877   -0.1139   -0.0616    0.0365    0.0277    0.0243
  S   H   16   -0.1825    0.1126    0.0964    0.0125   -0.1184    0.0949    0.0373    0.0147
  S   H   17   -0.1260    0.1310   -0.0751    0.0510    0.1057   -0.0891   -0.0340   -0.0109
  S   H   18    0.1471   -0.0589   -0.1091   -0.0719    0.0865   -0.0454   -0.0275   -0.0056
  S   H   19   -0.0270   -0.0698    0.1243    0.0850    0.0236   -0.0950   -0.0579    0.0072
  S   H   20    0.0623   -0.0353    0.0779   -0.0858   -0.0501   -0.0693   -0.0334   -0.0507
  S   C   21    0.0292    0.0859    0.0590   -0.0304    0.0917    0.0564    0.0181   -0.0076
  Px  C   21   -0.1119   -0.0756   -0.1784   -0.1695   -0.1308   -0.0872    0.0965   -0.2407
  Py  C   21    0.0803    0.3185    0.0918   -0.1705    0.1764    0.1096    0.0779   -0.1260
  Pz  C   21   -0.0018   -0.0013   -0.0002   -0.0004    0.0015    0.0013   -0.0004    0.0020
  S   C   22    0.0076   -0.0716    0.0415    0.0724    0.0301    0.0132    0.0044    0.0186
  Px  C   22   -0.0659    0.1701   -0.1597   -0.1570   -0.1154   -0.0511   -0.0267   -0.0161
  Py  C   22    0.0609    0.1508    0.1504   -0.1310    0.2743    0.1567    0.1682   -0.2394
  Pz  C   22    0.0115   -0.0058    0.0252    0.0070    0.0271    0.0141    0.0114   -0.0114
  S   C   23   -0.0418   -0.0822   -0.0526    0.0707   -0.0534   -0.0271   -0.0008    0.0065
  Px  C   23    0.0782    0.2621   -0.0425   -0.2133   -0.1447   -0.0885   -0.1521    0.1585
  Py  C   23    0.1275    0.1391    0.2033   -0.0666    0.2349    0.1219    0.0980   -0.1208
  Pz  C   23    0.0009   -0.0084    0.0106    0.0088    0.0175    0.0092    0.0138   -0.0161
  S   C   24    0.0151    0.1033   -0.0586   -0.0415   -0.0892   -0.0563   -0.0173    0.0058
  Px  C   24    0.0827    0.2642    0.0110   -0.2388   -0.0512   -0.0267   -0.1433    0.1600
  Py  C   24    0.0003   -0.1923    0.1644   -0.0307    0.1848    0.1246   -0.0579    0.0953
  Pz  C   24   -0.0032   -0.0342    0.0208    0.0078    0.0269    0.0173    0.0004    0.0040
  S   H   25    0.0776    0.1865    0.1032   -0.0313    0.1333    0.0869    0.0085    0.0130
  S   H   26    0.0504   -0.0915    0.1109    0.0904    0.0864    0.0413    0.0204    0.0041
  S   H   27   -0.0897   -0.1540   -0.0873    0.0995   -0.0708   -0.0337   -0.0008    0.0098
  S   H   28    0.0224    0.1669   -0.0788   -0.0501   -0.1102   -0.0745   -0.0104   -0.0070
  S   C   29   -0.0117    0.0385   -0.0008   -0.0599    0.0399    0.0280    0.0082   -0.0090
  Px  C   29   -0.1428   -0.1396   -0.2415   -0.1265   -0.2194   -0.1379    0.0845   -0.2297
  Py  C   29   -0.1264   -0.1583   -0.1467    0.0238    0.1108    0.2764   -0.1845    0.3067
  Pz  C   29    0.0098    0.0119    0.0157    0.0041    0.0112    0.0027    0.0004    0.0041
  S   C   30    0.0190    0.0570   -0.0018   -0.0664   -0.0334   -0.0245   -0.0150    0.0040
  Px  C   30    0.0764   -0.1364    0.2231   -0.0586    0.0141   -0.1603    0.0957   -0.2096
  Py  C   30    0.0010   -0.0499    0.1143   -0.0735    0.2510    0.2668   -0.1840    0.3093
  Pz  C   30    0.0025   -0.0032    0.0109   -0.0084    0.0141    0.0120   -0.0102    0.0148


   Root No.      81        82        83        84

                81 A      82 A      83 A      84 A   

                12.652    12.754    13.197    14.571
  
  S   C    1   -0.0634   -0.0073    0.0092    0.0391
  Px  C    1   -0.1805   -0.2214    0.2164    0.1022
  Py  C    1   -0.0369    0.1373   -0.1294    0.0244
  Pz  C    1   -0.0078   -0.0020    0.0023    0.0043
  S   C    2   -0.0150    0.0164   -0.0144    0.0277
  Px  C    2   -0.2412   -0.2290    0.2216    0.1513
  Py  C    2   -0.1647   -0.0792    0.0669    0.1275
  Pz  C    2   -0.0152   -0.0117    0.0112    0.0113
  S   C    3    0.0218    0.0109    0.0006    0.0190
  Px  C    3   -0.2064   -0.0920    0.2536    0.2212
  Py  C    3   -0.1856   -0.1509    0.0440    0.1207
  Pz  C    3   -0.0242   -0.0134    0.0261    0.0240
  S   C    4    0.0107   -0.0008   -0.0127    0.0252
  Px  C    4   -0.2316    0.1425   -0.1604    0.2121
  Py  C    4   -0.1690   -0.0230   -0.1767    0.1469
  Pz  C    4   -0.0246    0.0080   -0.0239    0.0247
  S   C    5   -0.0136   -0.0153    0.0139    0.0264
  Px  C    5   -0.2286    0.1603   -0.1576    0.1766
  Py  C    5   -0.0963    0.1240   -0.1318    0.0503
  Pz  C    5   -0.0095    0.0088   -0.0089    0.0070
  S   C    6   -0.0614   -0.0040   -0.0013    0.0379
  Px  C    6   -0.1259   -0.0109   -0.0003    0.0749
  Py  C    6   -0.1001    0.2413   -0.2390    0.0638
  Pz  C    6   -0.0069    0.0094   -0.0092    0.0043
  S   C    7    0.0584   -0.0014    0.0040    0.0149
  Px  C    7   -0.1507   -0.0856    0.2567    0.2409
  Py  C    7    0.0324   -0.0859    0.1498    0.1631
  Pz  C    7   -0.0161   -0.0079    0.0231    0.0210
  S   C    8    0.0560    0.0170   -0.0061    0.0133
  Px  C    8   -0.1392    0.1264   -0.2556    0.2798
  Py  C    8   -0.1835    0.0028   -0.1285    0.1302
  Pz  C    8   -0.0256    0.0031   -0.0167    0.0179
  S   C    9    0.0628   -0.0122    0.0048   -0.0103
  Px  C    9   -0.0619    0.1214   -0.2515    0.2773
  Py  C    9    0.0731   -0.2644   -0.0634    0.1477
  Pz  C    9   -0.0001    0.0063    0.0054   -0.0065
  S   C   10    0.0610    0.0145   -0.0053   -0.0083
  Px  C   10    0.0189    0.1795    0.1990    0.2645
  Py  C   10    0.0079   -0.2319    0.1857    0.1509
  Pz  C   10   -0.0044    0.0034    0.0031    0.0057
  S   C   11    0.0644    0.0038    0.0092   -0.0103
  Px  C   11    0.0921    0.1955    0.2002    0.2560
  Py  C   11    0.1896    0.0887    0.1457    0.1281
  Pz  C   11   -0.0103   -0.0091   -0.0106   -0.0101
  S   H   12    0.0563   -0.0164    0.0182   -0.0053
  S   C   13    0.0587    0.0020   -0.0140   -0.0091
  Px  C   13    0.1888   -0.1422   -0.2313    0.2565
  Py  C   13    0.0015   -0.1143   -0.0918    0.1569
  Pz  C   13    0.0033    0.0011   -0.0013   -0.0027
  S   H   14    0.0416   -0.0294    0.0101    0.0192
  S   H   15   -0.0734   -0.0004    0.0012    0.0401
  S   H   16   -0.0226    0.0161   -0.0239    0.0216
  S   H   17   -0.0078   -0.0182    0.0257    0.0152
  S   H   18   -0.0665   -0.0141    0.0091    0.0369
  S   H   19    0.0453    0.0351   -0.0007    0.0047
  S   H   20    0.0388    0.0190   -0.0215   -0.0017
  S   C   21   -0.0098    0.0258    0.0163   -0.0229
  Px  C   21    0.2168    0.2227    0.1009    0.1724
  Py  C   21    0.0955    0.1921    0.1100    0.0550
  Pz  C   21   -0.0014   -0.0023   -0.0011   -0.0025
  S   C   22   -0.0634   -0.0178   -0.0086   -0.0376
  Px  C   22    0.1285    0.0035   -0.0009    0.0723
  Py  C   22    0.0864    0.3244    0.1776    0.0647
  Pz  C   22   -0.0056    0.0176    0.0099   -0.0016
  S   C   23   -0.0694    0.0013    0.0060   -0.0395
  Px  C   23    0.2104   -0.2561   -0.1561    0.1010
  Py  C   23    0.0374    0.1620    0.0855    0.0281
  Pz  C   23   -0.0101    0.0225    0.0126   -0.0041
  S   C   24   -0.0117   -0.0260   -0.0151   -0.0252
  Px  C   24    0.2673   -0.2449   -0.1500    0.1445
  Py  C   24    0.1769   -0.0740   -0.0381    0.1228
  Pz  C   24    0.0087    0.0019    0.0018    0.0085
  S   H   25   -0.0123    0.0307    0.0274   -0.0176
  S   H   26   -0.0708    0.0100    0.0082   -0.0370
  S   H   27   -0.0783   -0.0039    0.0027   -0.0392
  S   H   28   -0.0079   -0.0327   -0.0262   -0.0138
  S   C   29    0.0130    0.0024   -0.0065   -0.0238
  Px  C   29    0.2136    0.2056    0.0983    0.1998
  Py  C   29    0.1684    0.0830    0.2071    0.1337
  Pz  C   29   -0.0145   -0.0115   -0.0097   -0.0136
  S   C   30    0.0113   -0.0039    0.0052   -0.0276
  Px  C   30    0.2265   -0.1414   -0.2343    0.2272
  Py  C   30    0.2006   -0.1120    0.0172    0.1105
  Pz  C   30    0.0189   -0.0109   -0.0048    0.0112


              NET ATOMIC CHARGES AND DIPOLE CONTRIBUTIONS

  ATOM NO.   TYPE          CHARGE      No. of ELECS.   s-Pop       p-Pop       
    1          C          -0.020461        4.0205     1.08210     2.93836
    2          C          -0.025004        4.0250     1.08594     2.93907
    3          C           0.006171        3.9938     1.07436     2.91947
    4          C           0.007408        3.9926     1.07678     2.91581
    5          C          -0.033332        4.0333     1.10725     2.92608
    6          C          -0.025406        4.0254     1.09239     2.93302
    7          C          -0.035853        4.0359     1.09700     2.93885
    8          C          -0.028905        4.0289     1.09606     2.93285
    9          C           0.016045        3.9840     1.05894     2.92502
   10          C           0.017695        3.9823     1.05993     2.92237
   11          C          -0.040125        4.0401     1.10871     2.93141
   12          H           0.020299        0.9797     0.97970
   13          C          -0.037282        4.0373     1.11395     2.92334
   14          H           0.023060        0.9769     0.97694
   15          H           0.024934        0.9751     0.97507
   16          H           0.023039        0.9770     0.97696
   17          H           0.024964        0.9750     0.97504
   18          H           0.023640        0.9764     0.97636
   19          H           0.019227        0.9808     0.98077
   20          H           0.017378        0.9826     0.98262
   21          C          -0.034941        4.0349     1.09518     2.93976
   22          C          -0.029709        4.0297     1.08979     2.93992
   23          C          -0.021843        4.0218     1.08985     2.93199
   24          C          -0.022768        4.0228     1.09648     2.92629
   25          H           0.027470        0.9725     0.97253
   26          H           0.026555        0.9734     0.97345
   27          H           0.028270        0.9717     0.97173
   28          H           0.020857        0.9791     0.97914
   29          C           0.012521        3.9875     1.06882     2.91866
   30          C           0.016097        3.9839     1.06195     2.92195
 DIPOLE           X         Y         Z       TOTAL
 POINT-CHG.     0.100     0.042    -0.024     0.111
 HYBRID        -0.097    -0.072    -0.180     0.217
 SUM            0.003    -0.030    -0.204     0.206


          ATOMIC ORBITAL ELECTRON POPULATIONS

     Atom    s        px        py        pz   
    1  C   1.08210   0.98589   0.95513   0.99734
    2  C   1.08594   0.98076   0.94958   1.00873
    3  C   1.07436   0.96912   0.96779   0.98255
    4  C   1.07678   0.96650   0.97347   0.97584
    5  C   1.10725   0.97132   0.95248   1.00228
    6  C   1.09239   0.94556   0.98952   0.99793
    7  C   1.09700   0.97024   0.94869   1.01993
    8  C   1.09606   0.97323   0.95059   1.00903
    9  C   1.05894   0.97797   0.96941   0.97763
   10  C   1.05993   0.96799   0.97215   0.98223
   11  C   1.10871   0.96124   0.94737   1.02279
   12  H   0.97970
   13  C   1.11395   0.96038   0.94770   1.01525
   14  H   0.97694
   15  H   0.97507
   16  H   0.97696
   17  H   0.97504
   18  H   0.97636
   19  H   0.98077
   20  H   0.98262
   21  C   1.09518   0.96897   0.96696   1.00383
   22  C   1.08979   0.95489   0.99113   0.99389
   23  C   1.08985   0.97857   0.95084   1.00258
   24  C   1.09648   0.97120   0.95119   1.00391
   25  H   0.97253
   26  H   0.97345
   27  H   0.97173
   28  H   0.97914
   29  C   1.06882   0.96868   0.97068   0.97930
   30  C   1.06195   0.96980   0.96972   0.98243

 **********************
 *                    *
 * JOB ENDED NORMALLY *
 *                    *
 **********************



 TOTAL JOB TIME:             2.11 SECONDS

 == MOPAC DONE ==


          MOPAC Job: "./tetraceneTraj/tetracene_1662.mop" ended normally on Feb 15, 2023, at 11:35.

rm: cannot remove ./tetraceneTraj/tetracene_1662.cim: No such file or directory
rm: cannot remove ./tetraceneTraj/tetracene_1662.end: No such file or directory
rm: cannot remove ./tetraceneTraj/tetracene_1662.log: No such file or directory
rm: cannot remove ./tetraceneTraj/tetracene_1662.temp: No such file or directory
rm: cannot remove ./tetraceneTraj/tetracene_1662.ple: No such file or directory
rm: cannot remove ./tetraceneTraj/tetracene_1662.sts: No such file or directory
