 *******************************************************************************
 ** Site#:    0         For non-commercial use only    Version 20.173L 64BITS **
 *******************************************************************************
 ** Cite this program as: MOPAC2016, Version: 20.173L, James J. P. Stewart,   **
 ** Stewart Computational Chemistry, web-site: HTTP://OpenMOPAC.net.          **
 *******************************************************************************
 **                                                                           **
 **                                MOPAC2016                                  **
 **                                                                           **
 *******************************************************************************

                              INDO CALCULATION RESULTS

 *******************************************************************************
 *  CALCULATION DONE:                                Wed Feb 15 11:36:33 2023  *
 *  INDO       - The INDO Hamiltonian to be used
 *
 *
 *
 *                 CHARGE ON SYSTEM = 0
 *
 *
 *
 *  C.I.=(N,M) - 3 DOUBLY FILLED LEVELS USED IN A C.I. INVOLVING 6 M.O.'S
 *  T=         - A TIME OF 172800.0 SECONDS REQUESTED
 *  DUMP=N     - RESTART FILE WRITTEN EVERY 7200.0 SECONDS REQUESTED
 *  RELSCF     - DEFAULT SCF CRITERION MULTIPLIED BY 0.0000
 *              (DEFAULT SCF CRITERION = 0.00010)
 *  ALLVEC     - PRINT ALL EIGENVECTORS
 **********
 *  WARNING: Specified print options may not behave as expected with INDO
 **********
 *******************************************************************************
INDO C.I.=(6,3) AllVEC CHARGE=0 RELSCF=0.000001


   ATOM   CHEMICAL          X               Y               Z
  NUMBER   SYMBOL      (ANGSTROMS)     (ANGSTROMS)     (ANGSTROMS)
 
     1       C         18.47076870  *  19.51855927  *  22.35463496  *
     2       C         19.86500309  *  19.43320287  *  22.42222666  *
     3       C         20.64766665  *  20.60935581  *  22.40819582  *
     4       C         19.98897589  *  21.93059762  *  22.49789284  *
     5       C         18.52880092  *  21.98501188  *  22.39815660  *
     6       C         17.79207616  *  20.82035358  *  22.26159199  *
     7       C         22.07358455  *  20.62476944  *  22.54617094  *
     8       C         20.72448580  *  23.14612388  *  22.57086046  *
     9       C         22.17163177  *  23.11819409  *  22.55539831  *
    10       C         22.85451492  *  21.83587711  *  22.53759544  *
    11       C         24.29565471  *  21.82202301  *  22.59427173  *
    12       H         24.85260121  *  20.87994646  *  22.65215343  *
    13       C         22.90589717  *  24.36800518  *  22.55199852  *
    14       H         22.62854925  *  19.64033518  *  22.60690044  *
    15       H         17.88435217  *  18.64789023  *  22.33977453  *
    16       H         20.35844541  *  18.44138746  *  22.28340380  *
    17       H         18.07359057  *  22.99603086  *  22.32523777  *
    18       H         16.73678920  *  20.79263219  *  22.18022428  *
    19       H         20.22619551  *  24.10873475  *  22.64358383  *
    20       H         22.30015529  *  25.30832269  *  22.56982913  *
    21       C         26.52220872  *  23.08390936  *  22.47557557  *
    22       C         27.20638332  *  24.26512729  *  22.50095170  *
    23       C         26.46390773  *  25.53106835  *  22.55868734  *
    24       C         25.12745968  *  25.54225132  *  22.64955086  *
    25       H         27.15793808  *  22.18392521  *  22.39687057  *
    26       H         28.31315808  *  24.37194428  *  22.52235089  *
    27       H         26.99964484  *  26.47989227  *  22.53393314  *
    28       H         24.56449850  *  26.51812824  *  22.61055688  *
    29       C         25.02594089  *  23.00910178  *  22.56955109  *
    30       C         24.32698296  *  24.32546052  *  22.57483872  *
 


          CARTESIAN COORDINATES 

    NO.       ATOM           X           Y           Z

     1         C         18.4708     19.5186     22.3546
     2         C         19.8650     19.4332     22.4222
     3         C         20.6477     20.6094     22.4082
     4         C         19.9890     21.9306     22.4979
     5         C         18.5288     21.9850     22.3982
     6         C         17.7921     20.8204     22.2616
     7         C         22.0736     20.6248     22.5462
     8         C         20.7245     23.1461     22.5709
     9         C         22.1716     23.1182     22.5554
    10         C         22.8545     21.8359     22.5376
    11         C         24.2957     21.8220     22.5943
    12         H         24.8526     20.8799     22.6522
    13         C         22.9059     24.3680     22.5520
    14         H         22.6285     19.6403     22.6069
    15         H         17.8844     18.6479     22.3398
    16         H         20.3584     18.4414     22.2834
    17         H         18.0736     22.9960     22.3252
    18         H         16.7368     20.7926     22.1802
    19         H         20.2262     24.1087     22.6436
    20         H         22.3002     25.3083     22.5698
    21         C         26.5222     23.0839     22.4756
    22         C         27.2064     24.2651     22.5010
    23         C         26.4639     25.5311     22.5587
    24         C         25.1275     25.5423     22.6496
    25         H         27.1579     22.1839     22.3969
    26         H         28.3132     24.3719     22.5224
    27         H         26.9996     26.4799     22.5339
    28         H         24.5645     26.5181     22.6106
    29         C         25.0259     23.0091     22.5696
    30         C         24.3270     24.3255     22.5748

           Empirical Formula: C18 H12  =    30 atoms



      MOLECULAR POINT GROUP   :   Cs  


      RHF CALCULATION, NO. OF DOUBLY OCCUPIED LEVELS = 42

 WARNING: INDO only performs single-point calculations
  SCF CRITERION =    0.1000E-09

 Summary of symmetry occupancy in each shell:

 SHELL     
    1   42
    v   42
 TOTAL  84




    ROOT NO.    1           2           3           4           5           6

           -44.34311   -42.85322   -40.38211   -36.85017   -35.48116   -34.00185
  
  
  S  C   1   0.13896    -0.22233    -0.25240     0.26163     0.04464    -0.11461
 PX  C   1   0.03725    -0.05272    -0.04343     0.01117     0.05429    -0.08840
 PY  C   1   0.04748    -0.07230    -0.07323     0.05695    -0.03287     0.05283
 PZ  C   1   0.00069    -0.00060     0.00041    -0.00243     0.00177    -0.00248
  
  S  C   2   0.17091    -0.24020    -0.20882     0.12328     0.18934    -0.28597
 PX  C   2  -0.00605     0.02859     0.06631    -0.10849     0.05323    -0.03559
 PY  C   2   0.06872    -0.08853    -0.05946     0.00231     0.02217    -0.01812
 PZ  C   2  -0.00256     0.00506     0.00725    -0.00863    -0.00308     0.00706
  
  S  C   3   0.28135    -0.28601    -0.07104    -0.16096     0.21028    -0.20868
 PX  C   3  -0.00668     0.06258     0.13081    -0.13313     0.07945    -0.03721
 PY  C   3   0.05263    -0.02118     0.06003    -0.10687    -0.08760     0.12852
 PZ  C   3   0.01068    -0.00792     0.00476    -0.01554     0.00871    -0.00617
  
  S  C   4   0.28474    -0.28118    -0.05379    -0.19255    -0.16365     0.19595
 PX  C   4   0.04125     0.01679     0.12185    -0.15587     0.05948    -0.08791
 PY  C   4  -0.03106     0.06256     0.07891    -0.06315    -0.12585     0.11789
 PZ  C   4  -0.00474     0.00843     0.00970    -0.00693     0.00141    -0.00390
  
  S  C   5   0.16847    -0.23329    -0.19655     0.09769    -0.21105     0.29312
 PX  C   5   0.05103    -0.05280    -0.00685    -0.06509    -0.03137     0.02911
 PY  C   5  -0.04328     0.07387     0.09007    -0.09512    -0.01736     0.01685
 PZ  C   5  -0.00058     0.00223     0.00503    -0.00859     0.00093    -0.00283
  
  S  C   6   0.13686    -0.21828    -0.24656     0.25104    -0.10208     0.13838
 PX  C   6   0.05986    -0.08879    -0.08421     0.05246    -0.01333     0.01193
 PY  C   6   0.00163     0.00158     0.01133    -0.03238    -0.05411     0.09513
 PZ  C   6   0.00737    -0.01139    -0.01184     0.00958    -0.00423     0.00570
  
  S  C   7   0.23539    -0.12173     0.14567    -0.21831     0.32158    -0.15414
 PX  C   7  -0.03564     0.07035     0.04023     0.08252     0.00467     0.07878
 PY  C   7   0.07665    -0.01252     0.08574    -0.06455     0.00404     0.04521
 PZ  C   7  -0.00455     0.00458    -0.00032     0.00700    -0.00597     0.00690
  
  S  C   8   0.23898    -0.11959     0.15423    -0.25349    -0.29982     0.16306
 PX  C   8   0.04548     0.02710     0.09220    -0.01230    -0.00554    -0.08476
 PY  C   8  -0.07023     0.06408    -0.01486     0.10139    -0.02524    -0.04224
 PZ  C   8  -0.00462     0.00435    -0.00014     0.00500     0.00273    -0.00471
  
  S  C   9   0.32354     0.02041     0.30788    -0.02638    -0.21471    -0.02621
 PX  C   9   0.02336     0.08422     0.02488     0.19400     0.06420    -0.05310
 PY  C   9  -0.04933     0.04167    -0.04290     0.09495    -0.14299    -0.04603
 PZ  C   9  -0.00083     0.00109    -0.00008     0.00181    -0.00085    -0.00052
  
  S  C  10   0.32093     0.01942     0.30685     0.00272     0.21814     0.01881
 PX  C  10  -0.02825     0.08114    -0.01877     0.19878     0.05455     0.06107
 PY  C  10   0.05014     0.04729     0.04848     0.09217    -0.13288     0.01452
 PZ  C  10   0.00311     0.00198     0.00396     0.00427     0.00253     0.00185
  
  S  C  11   0.22947     0.14344     0.16494     0.25315     0.27975     0.19963
 PX  C  11  -0.04801     0.01655    -0.08995    -0.00132    -0.01326     0.06869
 PY  C  11   0.06828     0.06991     0.02077     0.10368    -0.01885     0.03143
 PZ  C  11  -0.00330    -0.00201    -0.00227    -0.00306    -0.00299    -0.00210
  
  S  H  12   0.06909     0.04291     0.04663     0.07457     0.14365     0.10206
  
  S  C  13   0.22641     0.14203     0.15235     0.19320    -0.31158    -0.21234
 PX  C  13   0.03063     0.06980    -0.03650     0.08533     0.01817    -0.07071
 PY  C  13  -0.07729    -0.02335    -0.08900    -0.06005     0.01273    -0.03308
 PZ  C  13   0.00156     0.00153     0.00077     0.00223    -0.00294    -0.00300
  
  S  H  14   0.06895    -0.03417     0.04043    -0.05118     0.15453    -0.07304
  
  S  H  15   0.03850    -0.06500    -0.08199     0.10264     0.02053    -0.05442
  
  S  H  16   0.04947    -0.06812    -0.05718     0.03277     0.09454    -0.13774
  
  S  H  17   0.05086    -0.06678    -0.05006     0.01481    -0.10627     0.14439
  
  S  H  18   0.03712    -0.06253    -0.07866     0.09724    -0.04272     0.06116
  
  S  H  19   0.07497    -0.03551     0.04654    -0.07294    -0.16175     0.08076
  
  S  H  20   0.06777     0.03851     0.04455     0.04065    -0.15296    -0.09561
  
  S  C  21   0.14594     0.23522    -0.21179    -0.08605     0.17161     0.29591
 PX  C  21  -0.04369    -0.05222     0.00599    -0.06188    -0.02172    -0.01546
 PY  C  21   0.03746     0.07428    -0.09724    -0.08911    -0.01192    -0.01006
 PZ  C  21   0.00389     0.00619    -0.00514    -0.00103     0.00244     0.00317
  
  S  C  22   0.12153     0.22425    -0.26814    -0.22741     0.08601     0.15441
 PX  C  22  -0.05397    -0.09303     0.09459     0.05186    -0.01064    -0.01077
 PY  C  22  -0.00300    -0.00130    -0.00899    -0.02848    -0.04612    -0.09817
 PZ  C  22   0.00184     0.00339    -0.00397    -0.00318    -0.00071    -0.00214
  
  S  C  23   0.12681     0.23403    -0.28044    -0.24489    -0.03856    -0.10964
 PX  C  23  -0.03314    -0.05402     0.04709     0.01222     0.04703     0.09481
 PY  C  23  -0.04359    -0.07650     0.08137     0.05138    -0.02755    -0.05494
 PZ  C  23   0.00054     0.00094    -0.00096    -0.00051    -0.00215    -0.00488
  
  S  C  24   0.15564     0.25199    -0.23157    -0.12018    -0.15506    -0.28283
 PX  C  24   0.00847     0.03602    -0.08128    -0.10706     0.04578     0.04084
 PY  C  24  -0.05835    -0.08543     0.05729    -0.00473     0.01227     0.00848
 PZ  C  24  -0.00652    -0.01104     0.01099     0.00650     0.00499     0.00938
  
  S  H  25   0.04191     0.06660    -0.05857    -0.02125     0.08235     0.14304
  
  S  H  26   0.03071     0.06000    -0.08023    -0.08309     0.03330     0.06364
  
  S  H  27   0.03370     0.06562    -0.08733    -0.09213    -0.01889    -0.05366
  
  S  H  28   0.04624     0.07235    -0.06247    -0.03065    -0.08259    -0.14279
  
  S  C  29   0.25842     0.28913    -0.04170     0.20882     0.15578     0.20607
 PX  C  29  -0.04905     0.00174    -0.12577    -0.14501     0.03713     0.08003
 PY  C  29   0.02656     0.06322    -0.08690    -0.06245    -0.10264    -0.11155
 PZ  C  29  -0.00145    -0.00257     0.00275     0.00145    -0.00259    -0.00501
  
  S  C  30   0.26132     0.29855    -0.06100     0.16900    -0.17305    -0.21462
 PX  C  30  -0.00160     0.05659    -0.13943    -0.11751     0.08341     0.06309
 PY  C  30  -0.05056    -0.02390    -0.06974    -0.10730    -0.08033    -0.13065
 PZ  C  30   0.00002     0.00055    -0.00108    -0.00054    -0.00185    -0.00371




    ROOT NO.    7           8           9          10          11          12

           -31.81240   -31.36559   -28.85546   -28.28571   -26.75413   -26.06549
  
  
  S  C   1   0.14144     0.28291    -0.15919     0.26566     0.02594    -0.18715
 PX  C   1   0.10121    -0.08888    -0.12819    -0.14652    -0.01546    -0.08308
 PY  C   1  -0.07306     0.01319     0.11086    -0.03602     0.06539     0.13135
 PZ  C   1   0.00308    -0.00773    -0.00558    -0.00989     0.00033    -0.00555
  
  S  C   2   0.26230    -0.03496    -0.20159    -0.10304    -0.10866    -0.05595
 PX  C   2  -0.02160    -0.14262     0.11569    -0.11977    -0.07604     0.19305
 PY  C   2  -0.00961    -0.08327     0.05792    -0.10098     0.08984     0.10889
 PZ  C   2  -0.00931    -0.00627     0.01169    -0.00156     0.00613     0.00906
  
  S  C   3   0.07869    -0.24436     0.09505    -0.12397     0.07959     0.19585
 PX  C   3  -0.05741     0.03504     0.14857     0.13315    -0.09550     0.07654
 PY  C   3  -0.09156    -0.01258     0.01794     0.09686     0.19389    -0.07853
 PZ  C   3  -0.00137    -0.01001     0.01079     0.00349     0.00577     0.01051
  
  S  C   4  -0.06556    -0.25713    -0.12153    -0.06838     0.11749    -0.17167
 PX  C   4   0.09278     0.02940    -0.01698     0.17768     0.10750     0.07488
 PY  C   4  -0.00216     0.03304    -0.12066     0.10134    -0.16328    -0.13084
 PZ  C   4   0.00702     0.00567    -0.00673     0.01437    -0.00699    -0.00138
  
  S  C   5  -0.25518    -0.07331     0.13519    -0.17547    -0.12084    -0.00321
 PX  C   5   0.03059    -0.14459    -0.15204    -0.08585     0.05139    -0.19272
 PY  C   5   0.02198    -0.07186    -0.09129    -0.00987    -0.10283    -0.11892
 PZ  C   5   0.00824    -0.01118    -0.01855    -0.00262     0.00257    -0.02099
  
  S  C   6  -0.17262     0.25967     0.25021     0.17146    -0.00219     0.22249
 PX  C   6  -0.00144    -0.03789    -0.03899    -0.09624     0.04843    -0.06585
 PY  C   6  -0.10896    -0.09823     0.10557    -0.16209    -0.06791     0.08917
 PZ  C   6  -0.00600     0.00198     0.00411    -0.00574     0.00354    -0.00049
  
  S  C   7  -0.15923     0.01393     0.25814     0.08690    -0.20636     0.01215
 PX  C   7  -0.11437     0.14279    -0.04346     0.01363    -0.11308    -0.20726
 PY  C   7  -0.06513     0.08799    -0.00001     0.09239     0.15519    -0.10412
 PZ  C   7  -0.00277     0.00660    -0.00723    -0.00076    -0.00214    -0.01129
  
  S  C   8   0.15836     0.01138    -0.23769     0.16468    -0.16458    -0.00388
 PX  C   8   0.10950     0.15908     0.06184     0.06094     0.06622     0.20224
 PY  C   8   0.06694     0.07284     0.01001    -0.05609    -0.18367     0.10472
 PZ  C   8   0.00324     0.00512     0.00060     0.00030    -0.00773     0.00531
  
  S  C   9   0.20107     0.25160    -0.00745    -0.01711     0.09616     0.16465
 PX  C   9  -0.06987     0.00365     0.08860    -0.19394     0.11755    -0.07944
 PY  C   9   0.13913    -0.03266     0.02220    -0.11272    -0.21651     0.12077
 PZ  C   9   0.00091     0.00104    -0.00159    -0.00001    -0.00556     0.00015
  
  S  C  10  -0.21867     0.24719     0.02692    -0.00909     0.07470    -0.20083
 PX  C  10  -0.06632    -0.02633    -0.12998    -0.16307    -0.11115    -0.06035
 PY  C  10   0.12381     0.02564    -0.07173    -0.08528     0.23401     0.09836
 PZ  C  10  -0.00443     0.00507    -0.00426    -0.00326    -0.00264    -0.00650
  
  S  C  11  -0.16501    -0.00587    -0.25776    -0.08804    -0.17171     0.02416
 PX  C  11   0.11209    -0.14627    -0.06321     0.09667    -0.06642     0.21586
 PY  C  11   0.06106    -0.07556    -0.03709    -0.02477     0.18270     0.10259
 PZ  C  11   0.00060    -0.00034    -0.00004     0.00129    -0.00330     0.00045
  
  S  H  12  -0.07629    -0.00796    -0.12308    -0.00292    -0.21050     0.02488
  
  S  C  13   0.17098     0.00388     0.20432    -0.17007    -0.18237    -0.00186
 PX  C  13  -0.11099    -0.14500     0.07915     0.01629     0.10967    -0.19890
 PY  C  13  -0.06354    -0.07975     0.03441     0.08689    -0.15137    -0.09166
 PZ  C  13  -0.00002    -0.00168     0.00202     0.00014    -0.00360    -0.00288
  
  S  H  14  -0.07462     0.00292     0.10589    -0.00051    -0.22498    -0.00154
  
  S  H  15   0.07389     0.16495    -0.09383     0.20240    -0.01341    -0.13641
  
  S  H  16   0.12451    -0.01050    -0.09688    -0.02976    -0.12831    -0.03569
  
  S  H  17  -0.11685    -0.03852     0.05008    -0.07035    -0.13676    -0.01950
  
  S  H  18  -0.08449     0.15295     0.14892     0.14651    -0.02862     0.15478
  
  S  H  19   0.08279     0.00042    -0.12538     0.03481    -0.21180    -0.00135
  
  S  H  20   0.08617     0.00747     0.08567    -0.04468    -0.21304     0.01832
  
  S  C  21   0.30177    -0.04003     0.17202     0.11665    -0.12010    -0.01862
 PX  C  21   0.04387     0.13560     0.11651    -0.15547    -0.04721    -0.18310
 PY  C  21   0.02509     0.07133     0.07482    -0.04976     0.09206    -0.10658
 PZ  C  21   0.00069    -0.00407    -0.00332     0.00629     0.00316     0.00632
  
  S  C  22   0.19217     0.24225     0.15804    -0.26103     0.01886    -0.17993
 PX  C  22   0.00145     0.02333     0.01346    -0.09631    -0.03870    -0.05129
 PY  C  22  -0.13924     0.07762    -0.14896    -0.11958     0.07722     0.09918
 PZ  C  22  -0.00405     0.00265    -0.00541    -0.00227     0.00380     0.00467
  
  S  C  23  -0.18623     0.24545    -0.23179    -0.21149     0.03848     0.17602
 PX  C  23   0.11762     0.07946     0.06988    -0.17618     0.03814    -0.05464
 PY  C  23  -0.08208    -0.01300    -0.10115    -0.00489    -0.06288     0.10639
 PZ  C  23  -0.00751    -0.00185    -0.00752     0.00611    -0.00168     0.00708
  
  S  C  24  -0.29044    -0.04304    -0.12504     0.15018    -0.10928     0.01208
 PX  C  24  -0.04127     0.13891    -0.15811    -0.08908     0.07514     0.18205
 PY  C  24  -0.02952     0.08191    -0.09472    -0.09049    -0.07741     0.10038
 PZ  C  24   0.00972     0.00016     0.00416    -0.00454     0.00168    -0.00098
  
  S  H  25   0.14771    -0.00922     0.08639     0.03037    -0.12568    -0.02060
  
  S  H  26   0.08695     0.13407     0.07758    -0.19097    -0.00853    -0.11543
  
  S  H  27  -0.09869     0.13610    -0.14657    -0.15885    -0.00186     0.12973
  
  S  H  28  -0.13882    -0.01955    -0.05905     0.05218    -0.12330     0.00345
  
  S  C  29   0.07565    -0.25098    -0.11161     0.15028     0.08958     0.19625
 PX  C  29   0.10372    -0.00983     0.05999     0.15484    -0.11328     0.05746
 PY  C  29   0.01487    -0.03691     0.15100     0.07645     0.15470    -0.12030
 PZ  C  29  -0.00606     0.00143    -0.00371    -0.00453     0.00088    -0.00262
  
  S  C  30  -0.05885    -0.25157     0.15844     0.11286     0.07952    -0.18088
 PX  C  30  -0.05816    -0.03562    -0.09870     0.18671     0.07175     0.06424
 PY  C  30  -0.09233     0.01048     0.03854     0.07917    -0.18477    -0.10540
 PZ  C  30  -0.00409    -0.00260    -0.00033     0.00479    -0.00250    -0.00397




    ROOT NO.   13          14          15          16          17          18

           -25.07077   -24.04619   -22.80667   -21.52674   -20.62332   -19.36520
  
  
  S  C   1  -0.03040     0.13241    -0.01492     0.16788    -0.02727     0.00061
 PX  C   1   0.02284    -0.23485    -0.01961    -0.02482     0.20334     0.16247
 PY  C   1  -0.12859    -0.02409    -0.18283    -0.12426    -0.14335     0.19792
 PZ  C   1  -0.00048    -0.01298    -0.00230     0.00658     0.01450     0.00883
  
  S  C   2   0.16041    -0.17659     0.11159    -0.12964     0.10523     0.02491
 PX  C   2   0.09715     0.02942     0.08239    -0.16967    -0.14198    -0.12747
 PY  C   2  -0.16147    -0.01161    -0.18948    -0.06861    -0.16018     0.07803
 PZ  C   2  -0.01041     0.00988    -0.00934     0.00504    -0.01152    -0.00053
  
  S  C   3  -0.08956     0.09726    -0.00050    -0.08549    -0.07217    -0.14291
 PX  C   3   0.14694     0.15963     0.15289     0.10697     0.00959    -0.03314
 PY  C   3  -0.20545     0.10248    -0.03937     0.13061     0.13650    -0.08901
 PZ  C   3  -0.00560     0.01766     0.00178     0.00478    -0.00535    -0.00546
  
  S  C   4  -0.12853     0.12743    -0.01360     0.08611    -0.05423    -0.14122
 PX  C   4  -0.07488     0.14603     0.07123    -0.16325     0.09376    -0.05273
 PY  C   4   0.21467     0.07620     0.14045    -0.02908    -0.07619     0.04758
 PZ  C   4   0.01005     0.01369     0.00749    -0.01357    -0.01145     0.00881
  
  S  C   5   0.16650    -0.17563     0.11057     0.12367     0.14286    -0.01349
 PX  C   5  -0.10277     0.04568    -0.12397     0.15537    -0.18887    -0.02432
 PY  C   5   0.15828     0.04836     0.16638     0.08869    -0.00970    -0.17708
 PZ  C   5  -0.00735     0.01152    -0.01118     0.01562    -0.02788    -0.00131
  
  S  C   6   0.00332     0.09195     0.01034    -0.16827    -0.05109     0.02979
 PX  C   6  -0.09781    -0.13782    -0.16567     0.12158     0.03143     0.22423
 PY  C   6   0.11195    -0.20030     0.10097    -0.04878     0.25010     0.02423
 PZ  C   6  -0.00804    -0.01156    -0.01545     0.01191     0.00296     0.02498
  
  S  C   7   0.13074     0.10325    -0.06442     0.22164    -0.04811     0.14784
 PX  C   7   0.00847    -0.14217    -0.18181     0.07064     0.00681     0.17224
 PY  C   7  -0.11669    -0.08610     0.01780     0.00740     0.21416    -0.01009
 PZ  C   7  -0.00324    -0.00846    -0.01363    -0.00003    -0.00350     0.01464
  
  S  C   8   0.10795     0.08925    -0.05763    -0.20893    -0.09467     0.16946
 PX  C   8  -0.07839    -0.16375    -0.06440    -0.05731     0.19565     0.05299
 PY  C   8   0.07451    -0.07943    -0.16283    -0.03340    -0.11735     0.13073
 PZ  C   8   0.00377    -0.00219    -0.00913    -0.01013    -0.01080     0.01727
  
  S  C   9   0.00784    -0.23220     0.03014     0.00203     0.01628    -0.02023
 PX  C   9   0.01736    -0.02570     0.11648     0.16766    -0.15488    -0.15000
 PY  C   9   0.00322     0.08286    -0.19528     0.11356    -0.09921    -0.07983
 PZ  C   9   0.00140    -0.00012    -0.00657    -0.00840    -0.00362     0.01002
  
  S  C  10   0.00060    -0.21980     0.00680    -0.00887    -0.00928     0.00354
 PX  C  10   0.00050     0.04807    -0.09953    -0.15469    -0.20866    -0.14398
 PY  C  10   0.01119    -0.08173     0.21913    -0.09663    -0.07603    -0.09740
 PZ  C  10  -0.00035    -0.00467    -0.00725    -0.00992    -0.00462     0.00245
  
  S  C  11  -0.13513     0.10100    -0.07041    -0.20591     0.05138    -0.15688
 PX  C  11  -0.08527     0.14205     0.05321     0.05315     0.22729     0.05824
 PY  C  11   0.08467     0.06195     0.17408     0.05476    -0.08737     0.13316
 PZ  C  11  -0.00162     0.00329    -0.00586    -0.00787     0.00903    -0.00304
  
  S  H  12  -0.14427     0.06296    -0.11516    -0.11256     0.15464    -0.14107
  
  S  C  13  -0.12762     0.11363    -0.07107     0.20547     0.08077    -0.15031
 PX  C  13   0.00868     0.14573     0.17317    -0.08169     0.01572     0.16411
 PY  C  13  -0.11855     0.08584    -0.05108    -0.04584     0.20164    -0.00640
 PZ  C  13  -0.00169     0.00245    -0.00147    -0.00650     0.00181     0.00558
  
  S  H  14   0.13186     0.05530    -0.10074     0.12261    -0.14575     0.13948
  
  S  H  15   0.04203     0.16845     0.10000     0.17131    -0.01225    -0.19126
  
  S  H  16   0.20178    -0.07445     0.19116    -0.07123     0.10858    -0.07530
  
  S  H  17   0.20550    -0.07263     0.18712     0.06888     0.11688    -0.10940
  
  S  H  18   0.06033     0.14189     0.11403    -0.17334    -0.05585    -0.15467
  
  S  H  19   0.12147     0.05004    -0.10566    -0.10345    -0.17752     0.14991
  
  S  H  20  -0.12929     0.05543    -0.12673     0.10139     0.14576    -0.13845
  
  S  C  21  -0.16975    -0.18253     0.12572     0.13830    -0.10587    -0.00588
 PX  C  21  -0.12355    -0.00466     0.15402    -0.14617    -0.19481    -0.01750
 PY  C  21   0.15475    -0.01441    -0.16355    -0.10910    -0.03916    -0.17673
 PZ  C  21   0.00955     0.00123    -0.01511    -0.00014     0.01424    -0.00712
  
  S  C  22   0.01138     0.14757    -0.01628    -0.17422     0.05447    -0.00987
 PX  C  22  -0.10179     0.13516     0.15863    -0.10477     0.03543     0.25135
 PY  C  22   0.12630     0.19654    -0.12469     0.01942     0.23958     0.04719
 PZ  C  22   0.00767     0.00509    -0.00985    -0.00038     0.01072    -0.00372
  
  S  C  23   0.03150     0.10928    -0.00094     0.15904     0.03466     0.00211
 PX  C  23   0.04877     0.24089    -0.02326    -0.00314     0.21182     0.17006
 PY  C  23  -0.14295    -0.00110     0.21580     0.14823    -0.10513     0.21070
 PZ  C  23  -0.00325    -0.01102     0.00393     0.00288    -0.01346    -0.00664
  
  S  C  24  -0.16467    -0.17238     0.11267    -0.11739    -0.09547    -0.02785
 PX  C  24   0.09697    -0.04658    -0.05408     0.18882    -0.13251    -0.14614
 PY  C  24  -0.16887    -0.00272     0.21283     0.10315    -0.11916     0.08489
 PZ  C  24   0.00144     0.00553     0.00148    -0.00139     0.00127     0.00678
  
  S  H  25  -0.21275    -0.08692     0.21072     0.07085    -0.10923     0.09508
  
  S  H  26  -0.04882     0.17442     0.08830    -0.16036     0.07081     0.18816
  
  S  H  27  -0.04621     0.13287     0.11674     0.17181     0.02890     0.20281
  
  S  H  28  -0.20847    -0.07137     0.19347    -0.05751    -0.06958     0.08768
  
  S  C  29   0.11537     0.08833    -0.00613     0.10569     0.06911     0.15782
 PX  C  29  -0.07712    -0.15307    -0.07414     0.15616     0.12166    -0.05817
 PY  C  29   0.22600    -0.07925    -0.12719     0.03624    -0.10462     0.05569
 PZ  C  29   0.00166     0.00812    -0.00302    -0.01708     0.00400    -0.00134
  
  S  C  30   0.10237     0.10989    -0.01583    -0.09873     0.04698     0.15384
 PX  C  30   0.14552    -0.16083    -0.15193    -0.10311    -0.02222    -0.01728
 PY  C  30  -0.20106    -0.07383     0.00269    -0.15627     0.14043    -0.09470
 PZ  C  30  -0.00154    -0.00142    -0.00231    -0.01601     0.00434     0.00335




    ROOT NO.   19          20          21          22          23          24

           -18.39983   -17.25864   -16.94107   -16.58842   -16.02907   -15.26485
  
  
  S  C   1  -0.15930    -0.00471     0.04874     0.10036    -0.06263     0.04150
 PX  C   1   0.08692     0.18893    -0.00949    -0.03198    -0.14310     0.20721
 PY  C   1   0.11911    -0.19303    -0.02945    -0.04194    -0.16766     0.08171
 PZ  C   1  -0.01255     0.02307     0.00335     0.01229    -0.01580     0.01762
  
  S  C   2   0.16874    -0.01125    -0.01666    -0.06192     0.00590     0.05241
 PX  C   2   0.09270    -0.21248    -0.01959    -0.03749     0.16304    -0.18400
 PY  C   2  -0.04734    -0.09847     0.18212     0.24156     0.03162     0.26743
 PZ  C   2  -0.02003     0.00560     0.00980     0.02458    -0.00645     0.02993
  
  S  C   3  -0.04762     0.05629     0.15828     0.14890     0.07000     0.00013
 PX  C   3  -0.16957    -0.00065     0.00126     0.01836    -0.23030    -0.14609
 PY  C   3  -0.03942     0.27829    -0.05359    -0.09192     0.04146    -0.08602
 PZ  C   3  -0.01708     0.01250    -0.00121     0.01283    -0.01762     0.02391
  
  S  C   4   0.07923     0.01377    -0.14533    -0.16892     0.10311    -0.01939
 PX  C   4   0.13231     0.23337     0.01230     0.03535    -0.09101     0.14356
 PY  C   4   0.10388    -0.18504    -0.09486    -0.05977    -0.18601     0.08894
 PZ  C   4   0.01348    -0.00595    -0.00009     0.00658    -0.03406     0.02502
  
  S  C   5  -0.16525    -0.00560     0.01182     0.06204     0.00254    -0.04873
 PX  C   5  -0.01176    -0.24038    -0.08774    -0.14333     0.13322    -0.11304
 PY  C   5  -0.06778    -0.08555     0.17226     0.18219     0.15005     0.28369
 PZ  C   5  -0.00339    -0.03380    -0.00485    -0.00720     0.00127    -0.00328
  
  S  C   6   0.15044    -0.01010    -0.05935    -0.09542    -0.05409    -0.03412
 PX  C   6  -0.19824    -0.04318    -0.03753     0.05837    -0.25696    -0.17520
 PY  C   6  -0.00329     0.26806    -0.04387    -0.03228    -0.04198    -0.10492
 PZ  C   6  -0.02751    -0.00221    -0.00500     0.01099    -0.03974    -0.02455
  
  S  C   7  -0.10965     0.02396    -0.04328    -0.05447    -0.08154     0.02194
 PX  C   7   0.15187    -0.00122    -0.10764    -0.12691     0.17372     0.14458
 PY  C   7   0.13736     0.08243     0.24614     0.05118     0.02995    -0.05900
 PZ  C   7   0.00610     0.00020    -0.02627    -0.00730     0.00998     0.04113
  
  S  C   8   0.07245     0.06099     0.00850     0.05310    -0.09207    -0.00267
 PX  C   8  -0.16689     0.05515    -0.13589     0.02163     0.14929    -0.00621
 PY  C   8  -0.09991     0.05528     0.26437     0.15118     0.05070    -0.16825
 PZ  C   8  -0.00022     0.00376     0.02130     0.01750    -0.01356    -0.00448
  
  S  C   9  -0.15011    -0.14410    -0.17072     0.03274     0.10192     0.04831
 PX  C   9   0.04056    -0.13064     0.04610    -0.02674    -0.05604     0.01926
 PY  C   9  -0.06916     0.21437    -0.10523    -0.03918     0.15016     0.04390
 PZ  C   9  -0.00236     0.00560     0.00093     0.00899    -0.00103     0.00649
  
  S  C  10   0.13797    -0.10147     0.20419    -0.00589     0.03984    -0.06737
 PX  C  10   0.03467     0.14864     0.04124     0.00550     0.06262    -0.07832
 PY  C  10  -0.09740    -0.22813    -0.05195     0.04423    -0.11231    -0.02550
 PZ  C  10   0.00090     0.00343    -0.01244     0.00567     0.00424     0.02231
  
  S  C  11  -0.07324     0.05595    -0.03818     0.04615    -0.06474    -0.02245
 PX  C  11  -0.15417    -0.09339    -0.16432     0.01619    -0.11542     0.09533
 PY  C  11  -0.08958    -0.00234     0.22420    -0.22852    -0.16101    -0.10222
 PZ  C  11  -0.01173     0.00354    -0.02743     0.01180    -0.00034     0.02191
  
  S  H  12  -0.03747    -0.00809    -0.26404     0.20147     0.03445     0.10777
  
  S  C  13   0.12571     0.01667     0.01021    -0.05588    -0.07745     0.03824
 PX  C  13   0.12981    -0.02681    -0.13197     0.21154    -0.16131     0.08803
 PY  C  13   0.13526    -0.04417     0.26430    -0.11302    -0.12175    -0.11330
 PZ  C  13  -0.00498     0.00086     0.00069     0.00467     0.00161    -0.00182
  
  S  H  14  -0.08608    -0.04469    -0.26445    -0.11921     0.00876     0.11917
  
  S  H  15  -0.19909     0.04092     0.04917     0.09566     0.15579    -0.13947
  
  S  H  16   0.14944    -0.01439    -0.16168    -0.23487     0.04128    -0.26000
  
  S  H  17  -0.12757     0.01683     0.17986     0.22993     0.06290     0.24315
  
  S  H  18   0.23497     0.02489     0.00088    -0.09952     0.19627     0.13528
  
  S  H  19   0.02825     0.05560     0.27128     0.13277    -0.07495    -0.12565
  
  S  H  20   0.09673    -0.00229     0.26706    -0.20687    -0.06141    -0.10671
  
  S  C  21   0.14961    -0.01994     0.00774     0.06957    -0.00120    -0.00250
 PX  C  21  -0.06266     0.22204    -0.10763     0.11154    -0.12880    -0.11847
 PY  C  21  -0.08163     0.09448     0.04846    -0.17221    -0.15690     0.23975
 PZ  C  21  -0.01115    -0.01048     0.00369    -0.02049     0.00128     0.02496
  
  S  C  22  -0.15001    -0.01121     0.02740    -0.11695    -0.04125     0.07883
 PX  C  22  -0.16962     0.03200     0.02085    -0.09178     0.26534    -0.06470
 PY  C  22   0.01811    -0.22656     0.01589     0.04996     0.06040    -0.09797
 PZ  C  22  -0.00712    -0.00919    -0.00168    -0.00630     0.00255     0.00120
  
  S  C  23   0.15617    -0.00350    -0.03668     0.12110    -0.05970    -0.06143
 PX  C  23   0.09555    -0.16505     0.05983     0.06789     0.12881     0.02174
 PY  C  23   0.12326     0.14950     0.00374     0.05283     0.16463     0.01118
 PZ  C  23  -0.01062     0.01469    -0.00727    -0.00760    -0.00222    -0.00495
  
  S  C  24  -0.17617    -0.01731     0.00144    -0.08312     0.01876    -0.00110
 PX  C  24   0.09719     0.17735    -0.08264     0.03892    -0.16397    -0.04699
 PY  C  24  -0.02677     0.07884     0.09439    -0.22457    -0.03204     0.25240
 PZ  C  24  -0.00863     0.00209    -0.00016    -0.00683     0.00972     0.00095
  
  S  H  25   0.09950     0.02920    -0.08708     0.21486     0.05347    -0.23803
  
  S  H  26  -0.20730     0.00385     0.03312    -0.13404     0.21506    -0.02159
  
  S  H  27   0.20260     0.03661     0.01032     0.12775     0.14824    -0.01194
  
  S  H  28  -0.13934    -0.02800     0.11485    -0.23219     0.05018     0.21466
  
  S  C  29  -0.03923     0.01397     0.12835    -0.18247     0.06206     0.04232
 PX  C  29   0.14853    -0.24032     0.04015     0.01628     0.11046     0.09166
 PY  C  29   0.10472     0.16230    -0.04155     0.06742     0.23136     0.02954
 PZ  C  29  -0.02408     0.01098    -0.01529    -0.00010    -0.00621     0.00375
  
  S  C  30   0.04228     0.05822    -0.11062     0.18262     0.08521    -0.05313
 PX  C  30  -0.16108     0.02518     0.07006    -0.08539     0.22931    -0.13732
 PY  C  30  -0.05205    -0.25085    -0.01448     0.09716    -0.04027    -0.10583
 PZ  C  30  -0.02014    -0.00324    -0.00454     0.00281     0.01198    -0.01245




    ROOT NO.   25          26          27          28          29          30

           -14.92033   -14.76294   -14.70830   -14.52185   -13.77885   -13.42838
  
  
  S  C   1  -0.00604     0.05115    -0.01093    -0.01493    -0.06353     0.01488
 PX  C   1  -0.16574    -0.15635    -0.10545    -0.06626    -0.11977     0.03293
 PY  C   1  -0.11654     0.07689     0.21114    -0.00321    -0.14245     0.05158
 PZ  C   1  -0.00695    -0.01373    -0.08110     0.11911    -0.04310    -0.23430
  
  S  C   2  -0.06196    -0.01572     0.04776     0.02206     0.00957    -0.03387
 PX  C   2   0.13194     0.14097     0.13497     0.06873     0.15051    -0.03595
 PY  C   2  -0.10612     0.09482    -0.08765    -0.03052     0.06263    -0.03664
 PZ  C   2  -0.01406    -0.00231    -0.09751     0.16091    -0.04057    -0.26120
  
  S  C   3   0.04588    -0.01751    -0.01130    -0.02427    -0.00967     0.03168
 PX  C   3   0.06496    -0.02692     0.10702     0.00345    -0.25350     0.03130
 PY  C   3   0.04181    -0.15974    -0.08177    -0.03639    -0.01238     0.07080
 PZ  C   3  -0.02042    -0.00872    -0.11832     0.25790    -0.05977    -0.29177
  
  S  C   4  -0.01818    -0.02856    -0.06601     0.00145    -0.00398    -0.00732
 PX  C   4  -0.03197     0.03650    -0.13156    -0.07043    -0.17742     0.06756
 PY  C   4  -0.07560     0.13753     0.06356    -0.02090    -0.20059     0.00017
 PZ  C   4  -0.02350    -0.00553    -0.09330     0.25901    -0.07295    -0.28361
  
  S  C   5   0.04442     0.07613     0.02450     0.02247     0.03039    -0.02113
 PX  C   5  -0.01372    -0.05882     0.12668     0.03309     0.16083    -0.02181
 PY  C   5  -0.19189     0.08579     0.08004    -0.03381     0.04908     0.04493
 PZ  C   5  -0.01156    -0.00955    -0.03930     0.16484    -0.02903    -0.24797
  
  S  C   6   0.00020    -0.03507     0.02722    -0.00201    -0.05460     0.01573
 PX  C   6   0.15271     0.16278     0.09320    -0.00068    -0.15154     0.06028
 PY  C   6   0.12452    -0.10152    -0.21188    -0.00635    -0.00182    -0.03774
 PZ  C   6   0.02181     0.01591    -0.04321     0.12574    -0.05772    -0.22544
  
  S  C   7  -0.05598    -0.06617    -0.00477    -0.00400     0.02005     0.00061
 PX  C   7  -0.10087     0.00299    -0.07291    -0.03804     0.26608    -0.00646
 PY  C   7  -0.02126    -0.13664     0.33424     0.08720     0.06440    -0.04282
 PZ  C   7  -0.03441     0.00854    -0.10961     0.23902     0.00557    -0.13430
  
  S  C   8   0.05491     0.01677    -0.04727    -0.01584     0.01019     0.00389
 PX  C   8   0.03338     0.25716    -0.02673    -0.01205     0.22333    -0.00825
 PY  C   8   0.11390    -0.27227     0.05700     0.02876     0.17626    -0.00224
 PZ  C   8  -0.00734    -0.03166    -0.06902     0.24870    -0.01405    -0.13136
  
  S  C   9   0.01284    -0.00056    -0.01959    -0.00437     0.00579    -0.00033
 PX  C   9  -0.03634    -0.28944     0.02143     0.02132    -0.21959     0.00955
 PY  C   9  -0.00805    -0.12872     0.02425    -0.04105    -0.10482     0.04697
 PZ  C   9  -0.02681    -0.00300    -0.07919     0.31843     0.00318     0.02072
  
  S  C  10   0.00301    -0.01635     0.01202     0.00842    -0.00678    -0.00994
 PX  C  10   0.10090     0.14095    -0.23996    -0.08506    -0.20074     0.07131
 PY  C  10   0.04362     0.05466    -0.15315    -0.00792    -0.11181     0.00148
 PZ  C  10  -0.03193     0.01091    -0.08756     0.32127     0.00087     0.01734
  
  S  C  11   0.03354     0.06179     0.00772    -0.00102    -0.01399     0.00673
 PX  C  11  -0.09218    -0.12180     0.21545     0.05097     0.20272    -0.06783
 PY  C  11  -0.15351     0.02850    -0.19931    -0.05438     0.21849     0.03886
 PZ  C  11  -0.03159     0.00176    -0.01834     0.26428     0.01159     0.15285
  
  S  H  12   0.08510    -0.04818     0.24089     0.07372    -0.08966    -0.05035
  
  S  C  13  -0.05300    -0.00755     0.04513     0.00597    -0.03420    -0.01025
 PX  C  13   0.14766    -0.07500     0.00239     0.00664     0.21654    -0.01234
 PY  C  13  -0.07118     0.32093    -0.02980     0.02519     0.09139    -0.04416
 PZ  C  13  -0.03108    -0.00222    -0.04871     0.24584     0.00710     0.16218
  
  S  H  14  -0.05145     0.07886    -0.29135    -0.07207     0.07731     0.02452
  
  S  H  15   0.16516     0.04691    -0.11075     0.02644     0.14406    -0.04732
  
  S  H  16   0.10777    -0.02499     0.15186     0.04468     0.02653     0.02852
  
  S  H  17  -0.12607     0.12032     0.03736    -0.03812    -0.00199     0.05258
  
  S  H  18  -0.13635    -0.16580    -0.06360    -0.00916     0.12275    -0.03149
  
  S  H  19   0.09202    -0.30050     0.03334     0.03613     0.05042    -0.00415
  
  S  H  20  -0.13990     0.26246    -0.00163     0.02374    -0.04950    -0.03148
  
  S  C  21   0.08197     0.00451    -0.07453    -0.00601    -0.02763     0.02852
 PX  C  21  -0.13350     0.12167     0.03986     0.01199     0.17680     0.01011
 PY  C  21   0.27413     0.10872     0.13370     0.07109     0.09976    -0.01568
 PZ  C  21  -0.01608    -0.01040     0.00384     0.16638    -0.00065     0.24444
  
  S  C  22   0.03376    -0.03483     0.03361     0.00341     0.03974    -0.01227
 PX  C  22  -0.21668    -0.02653     0.12949     0.00766    -0.18802    -0.06009
 PY  C  22  -0.10278    -0.17812    -0.17913    -0.08685    -0.05461     0.01594
 PZ  C  22  -0.04066    -0.01828    -0.00323     0.12822    -0.00411     0.23551
  
  S  C  23  -0.03201     0.02145    -0.03792    -0.00800     0.05403     0.00420
 PX  C  23   0.26236     0.03353    -0.17125    -0.00610    -0.03671     0.09971
 PY  C  23   0.09949     0.20148     0.12463     0.07000    -0.07965    -0.01204
 PZ  C  23  -0.06264    -0.01191     0.01108     0.13602    -0.00187     0.24140
  
  S  C  24  -0.06562    -0.08568    -0.01419    -0.00957    -0.03120     0.01893
 PX  C  24  -0.24921     0.00978     0.16033     0.02518     0.07495    -0.07239
 PY  C  24   0.23059    -0.04416     0.06571     0.02032     0.03823    -0.01093
 PZ  C  24  -0.03583    -0.00837    -0.01325     0.16918    -0.00282     0.27128
  
  S  H  25  -0.23097    -0.01810    -0.11069    -0.06058    -0.00888     0.01284
  
  S  H  26  -0.18081    -0.05284     0.12393     0.00570    -0.16707    -0.05943
  
  S  H  27   0.18283     0.18695     0.00170     0.04612    -0.05753     0.03388
  
  S  H  28   0.26107    -0.07246    -0.03006    -0.00357    -0.02316     0.02776
  
  S  C  29  -0.01951     0.03122     0.02683     0.01432     0.02394    -0.00686
 PX  C  29   0.15776    -0.12900    -0.06770     0.00979    -0.19331     0.03249
 PY  C  29   0.08636     0.10356     0.13350     0.04430    -0.21487    -0.01914
 PZ  C  29  -0.05638     0.00518    -0.01395     0.27284     0.02688     0.29132
  
  S  C  30   0.00459     0.04355     0.04808     0.00523     0.02492    -0.01533
 PX  C  30  -0.12498     0.11391    -0.00609    -0.01503    -0.19715    -0.00155
 PY  C  30  -0.03072    -0.08362    -0.17776    -0.05442     0.00868     0.03441
 PZ  C  30  -0.05563    -0.00317    -0.03991     0.26414     0.00363     0.30901




    ROOT NO.   31          32          33          34          35          36

           -13.07397   -13.01052   -12.07814   -11.90495   -11.66855   -11.44799
  
  
  S  C   1  -0.00435    -0.01712     0.00996    -0.00127    -0.00405    -0.01075
 PX  C   1  -0.19519     0.15174    -0.07923    -0.00076     0.00390    -0.16458
 PY  C   1  -0.18030    -0.21324     0.17708    -0.02493    -0.09066     0.00657
 PZ  C   1  -0.01878    -0.01205    -0.08221    -0.21248    -0.18032     0.08367
  
  S  C   2  -0.01982    -0.02296    -0.03681    -0.02527     0.00788     0.02107
 PX  C   2   0.20702    -0.13781     0.04023     0.01004     0.02976     0.16987
 PY  C   2   0.17088     0.12152    -0.21080     0.01059     0.12537     0.03368
 PZ  C   2  -0.02055    -0.02381    -0.05364    -0.16584    -0.14501     0.06419
  
  S  C   3   0.04360     0.00527     0.00010     0.00683     0.01062    -0.00996
 PX  C   3  -0.18256     0.02276    -0.12231    -0.04580     0.01731    -0.24270
 PY  C   3  -0.15301    -0.05181     0.29423     0.02627    -0.16467     0.00838
 PZ  C   3  -0.05185    -0.06653     0.02837    -0.06090    -0.06514     0.01579
  
  S  C   4  -0.02595     0.00851     0.01328    -0.00175     0.00128     0.02875
 PX  C   4   0.15604    -0.11385     0.17010     0.04569     0.00205     0.26720
 PY  C   4   0.09584     0.02333    -0.27164    -0.02157     0.18098     0.02322
 PZ  C   4  -0.02768    -0.08186    -0.00159    -0.06394    -0.01823     0.02446
  
  S  C   5   0.00823    -0.02385    -0.03272    -0.01937     0.00011    -0.05011
 PX  C   5  -0.18501     0.11361    -0.13854    -0.02258     0.00276    -0.24691
 PY  C   5  -0.15938    -0.14612     0.16388    -0.00959    -0.08679    -0.02662
 PZ  C   5  -0.05346    -0.05058    -0.05639    -0.17728    -0.13368     0.03729
  
  S  C   6  -0.01012    -0.00586     0.00747     0.01072     0.01284     0.01776
 PX  C   6   0.15241    -0.15747     0.10382     0.04417     0.03343     0.13540
 PY  C   6   0.19238     0.20186    -0.17523     0.02675     0.10246     0.03564
 PZ  C   6   0.00393    -0.06166    -0.05619    -0.21367    -0.17532     0.11326
  
  S  C   7  -0.07492     0.00544    -0.04266    -0.01702     0.04412    -0.01305
 PX  C   7   0.14063    -0.03224     0.08493     0.02260     0.00172     0.24060
 PY  C   7  -0.00638    -0.16502    -0.17472    -0.06268     0.15977     0.05429
 PZ  C   7  -0.01289    -0.05091     0.09954     0.11689     0.06399    -0.00657
  
  S  C   8   0.08726    -0.02249    -0.01844    -0.02035     0.01930    -0.02693
 PX  C   8  -0.06871    -0.12691    -0.02185    -0.08459    -0.04583    -0.27023
 PY  C   8  -0.09732     0.09749     0.14573     0.02713    -0.13920    -0.05582
 PZ  C   8  -0.02842    -0.05846     0.06508     0.08933     0.09195    -0.05970
  
  S  C   9  -0.05775     0.03947     0.00189    -0.00423     0.00235    -0.00018
 PX  C   9   0.00552     0.14753     0.04692     0.09853     0.03233     0.28240
 PY  C   9  -0.06094    -0.25971    -0.10845    -0.14766     0.21832     0.07073
 PZ  C   9  -0.02235    -0.07003     0.08402     0.21657     0.21808    -0.12671
  
  S  C  10   0.05384     0.01714    -0.00123    -0.01435     0.00213     0.00232
 PX  C  10  -0.00187    -0.14090     0.02880    -0.11656     0.01160    -0.23010
 PY  C  10  -0.01862     0.27955     0.14429     0.13486    -0.19744    -0.04004
 PZ  C  10  -0.01511    -0.05551     0.10366     0.24829     0.20256    -0.09808
  
  S  C  11  -0.06596    -0.00262    -0.00526    -0.03918     0.02873    -0.03559
 PX  C  11  -0.04757     0.13767    -0.02669     0.07939    -0.00223     0.22046
 PY  C  11  -0.07932    -0.09932     0.02846    -0.14163     0.15914     0.06169
 PZ  C  11  -0.00104     0.00919     0.02421     0.15400     0.09228    -0.02195
  
  S  H  12   0.01104     0.14941    -0.03714     0.16643    -0.13774     0.04475
  
  S  C  13   0.08108    -0.02053     0.00564    -0.02709     0.04099     0.00255
 PX  C  13   0.15173    -0.04670     0.09801    -0.08772    -0.04452    -0.22545
 PY  C  13   0.03532     0.16535     0.03048     0.11330    -0.18053    -0.11198
 PZ  C  13  -0.00564    -0.02620     0.00975     0.09339     0.10989    -0.06174
  
  S  H  14   0.03276     0.12339     0.19456     0.07580    -0.13414     0.07385
  
  S  H  15   0.24615     0.08260    -0.09536     0.02461     0.07368     0.08201
  
  S  H  16  -0.06573    -0.17089     0.20878     0.00491    -0.08931     0.05458
  
  S  H  17  -0.05888    -0.18131     0.20839     0.00565    -0.08228     0.06142
  
  S  H  18  -0.15235     0.15412    -0.09382    -0.02088    -0.01473    -0.14061
  
  S  H  19  -0.01211     0.12240     0.14499     0.06944    -0.10101     0.06771
  
  S  H  20  -0.00799     0.14895    -0.02304     0.14917    -0.12848     0.02886
  
  S  C  21  -0.00410    -0.02003     0.02161    -0.03566     0.01200    -0.03957
 PX  C  21  -0.19252    -0.01083    -0.14799     0.09837    -0.04931     0.16400
 PY  C  21  -0.09521     0.16324     0.10054    -0.12339     0.11816     0.05215
 PZ  C  21   0.06685     0.05199    -0.04219    -0.18076    -0.13512     0.03342
  
  S  C  22   0.01312    -0.00970    -0.00275     0.00544     0.00264     0.00622
 PX  C  22   0.19828     0.10201     0.13723    -0.07180     0.04454    -0.10172
 PY  C  22   0.08315    -0.23048    -0.12967     0.16044    -0.12822    -0.05923
 PZ  C  22   0.08294     0.03180    -0.07675    -0.22503    -0.21648     0.03901
  
  S  C  23  -0.00998    -0.02001    -0.01195     0.01097    -0.01539    -0.01261
 PX  C  23  -0.24762    -0.05832    -0.13751     0.04252    -0.02744     0.14637
 PY  C  23  -0.09616     0.24233     0.14210    -0.15194     0.14184     0.04652
 PZ  C  23   0.09454     0.03505    -0.08208    -0.23825    -0.22582     0.03323
  
  S  C  24   0.01633    -0.02848    -0.00200    -0.02874     0.02615     0.03069
 PX  C  24   0.25342     0.04478     0.10193    -0.03142    -0.03668    -0.16445
 PY  C  24   0.11022    -0.14582    -0.12132     0.17059    -0.17957    -0.09794
 PZ  C  24   0.05115     0.01795    -0.09787    -0.17277    -0.17350     0.04334
  
  S  H  25  -0.03189    -0.14499    -0.15513     0.16340    -0.12009     0.02846
  
  S  H  26   0.20696     0.08369     0.13093    -0.06427     0.03601    -0.10787
  
  S  H  27  -0.21034     0.16889     0.05208    -0.10150     0.11119     0.11322
  
  S  H  28  -0.02370    -0.15604    -0.16163     0.16970    -0.13512     0.01213
  
  S  C  29   0.03386    -0.00688    -0.00341     0.00271     0.00754     0.01034
 PX  C  29   0.17931     0.02391     0.15649    -0.13412     0.05246    -0.17222
 PY  C  29   0.04951     0.02331    -0.10736     0.21092    -0.20824    -0.06549
 PZ  C  29   0.01095     0.03178    -0.04593     0.00005    -0.00928     0.03565
  
  S  C  30  -0.04033     0.02457    -0.00441    -0.00078    -0.01355    -0.01337
 PX  C  30  -0.20142     0.08911    -0.09253     0.10179     0.01869     0.21996
 PY  C  30  -0.10672     0.05181     0.14285    -0.23353     0.23147     0.06652
 PZ  C  30   0.00595     0.01298    -0.06055    -0.04038    -0.00974     0.02277




    ROOT NO.   37          38          39          40          41          42

           -10.54333    -9.85843    -9.69954    -8.33287    -8.08296    -6.76964
  
  
  S  C   1  -0.00178     0.00532     0.00257    -0.00372     0.00408     0.00160
 PX  C   1  -0.01114    -0.00797     0.03057    -0.02521    -0.01564     0.02091
 PY  C   1   0.00807     0.01854    -0.01888     0.01129     0.01458    -0.01038
 PZ  C   1   0.10804     0.26771    -0.26689     0.17128     0.30677    -0.21287
  
  S  C   2   0.02319    -0.00446    -0.03435     0.02792     0.00346    -0.01558
 PX  C   2   0.00596    -0.01152    -0.01376     0.01118    -0.00503    -0.00152
 PY  C   2  -0.01456    -0.00995     0.02477    -0.02082    -0.00853     0.01960
 PZ  C   2   0.22120    -0.01600    -0.35507     0.32458     0.04956    -0.23492
  
  S  C   3  -0.01805     0.03304     0.01861    -0.01750     0.02868    -0.00669
 PX  C   3   0.01583     0.00870     0.00220    -0.00536     0.01283    -0.00930
 PY  C   3  -0.01455     0.02711    -0.00107     0.00466     0.00972    -0.01078
 PZ  C   3   0.21108    -0.32539    -0.14718     0.08738    -0.31629     0.14839
  
  S  C   4  -0.01385    -0.00622     0.01116     0.00897    -0.01305    -0.01011
 PX  C   4  -0.00931     0.01443    -0.00865     0.00145     0.01517     0.00868
 PY  C   4   0.02211    -0.00037    -0.01727    -0.00322     0.03613     0.00913
 PZ  C   4  -0.22333    -0.15760     0.30465     0.00467    -0.36147    -0.11760
  
  S  C   5  -0.00665     0.00669     0.01532    -0.01844    -0.00532     0.01499
 PX  C   5   0.03912    -0.02972    -0.03513     0.02912     0.00902    -0.02179
 PY  C   5  -0.00383     0.00184    -0.00410     0.01129    -0.00068    -0.01126
 PZ  C   5  -0.20745     0.25149     0.28095    -0.31707    -0.05518     0.23560
  
  S  C   6   0.01054    -0.01939    -0.01113     0.01619    -0.00753    -0.01100
 PX  C   6   0.01428    -0.05253    -0.01542     0.03416    -0.02828    -0.02223
 PY  C   6  -0.00081    -0.01451     0.00650    -0.00232    -0.00485     0.00216
 PZ  C   6  -0.09581     0.40658     0.06845    -0.24194     0.23629     0.18055
  
  S  C   7   0.01520    -0.01951    -0.00213    -0.01063     0.00139     0.01664
 PX  C   7  -0.04844     0.03195     0.01353     0.02064     0.00965    -0.03724
 PY  C   7   0.03358    -0.02999    -0.01025    -0.01130     0.00595     0.01666
 PZ  C   7   0.29765    -0.27686    -0.11467    -0.22599    -0.00351     0.39439
  
  S  C   8   0.00705     0.00474    -0.00387    -0.00241    -0.00206     0.00137
 PX  C   8   0.00358     0.00409     0.00626     0.00073    -0.01497    -0.00787
 PY  C   8   0.02346     0.01161    -0.01925    -0.01574    -0.00905     0.02450
 PZ  C   8  -0.33602    -0.13354     0.26844     0.20043     0.00212    -0.38950
  
  S  C   9  -0.00923    -0.00171     0.00555     0.00406     0.00509    -0.00317
 PX  C   9  -0.01531    -0.00743    -0.00028     0.00369     0.02042     0.00409
 PY  C   9   0.02171    -0.01237     0.00565    -0.00014     0.00056    -0.00112
 PZ  C   9  -0.26250    -0.01869     0.01361     0.17336     0.39297    -0.04457
  
  S  C  10   0.00266     0.00537    -0.00451     0.01042    -0.01683    -0.00097
 PX  C  10   0.01884     0.01450     0.00458     0.00061    -0.01923    -0.00018
 PY  C  10  -0.02294     0.01124     0.00113    -0.00002    -0.00146     0.00471
 PZ  C  10   0.24143    -0.02731     0.00558    -0.28980     0.33323     0.01350
  
  S  C  11   0.00655    -0.00669     0.00109    -0.00696     0.00493    -0.00067
 PX  C  11  -0.03788    -0.02790    -0.00599     0.01332     0.01485     0.01426
 PY  C  11   0.02534     0.00513     0.01109    -0.01242     0.00448    -0.01711
 PZ  C  11   0.33708     0.26430     0.11001    -0.22580    -0.07422    -0.35382
  
  S  H  12  -0.02413    -0.00782    -0.00569     0.00615     0.00329     0.00673
  
  S  C  13   0.00532     0.00268    -0.00172    -0.00530    -0.00468    -0.00745
 PX  C  13   0.00730     0.02165    -0.01178    -0.00484    -0.01857    -0.00231
 PY  C  13  -0.01085     0.00768    -0.00059    -0.00060    -0.00625    -0.00268
 PZ  C  13  -0.32606     0.13501    -0.26071     0.26067     0.04604     0.36190
  
  S  H  14  -0.03569     0.02033     0.00909     0.00693    -0.00118    -0.00975
  
  S  H  15  -0.00446    -0.01331     0.00595    -0.00121    -0.00823     0.00270
  
  S  H  16  -0.00223     0.00453    -0.00127    -0.00134    -0.00227     0.00227
  
  S  H  17  -0.00958     0.00384    -0.00225     0.01207    -0.00202    -0.01251
  
  S  H  18  -0.00225     0.01289     0.00625    -0.01108     0.00786     0.00609
  
  S  H  19  -0.00104     0.00255    -0.00548    -0.00327    -0.00143     0.00368
  
  S  H  20  -0.01716    -0.00179     0.00056     0.00481     0.00461     0.00456
  
  S  C  21   0.00379     0.00423    -0.00447    -0.00744    -0.00294    -0.00416
 PX  C  21   0.00756    -0.02536     0.03797     0.02841     0.01638     0.01508
 PY  C  21  -0.02298    -0.01224    -0.02550    -0.02138     0.00267    -0.00953
 PZ  C  21   0.22428    -0.00734     0.36949     0.34538     0.06338     0.20655
  
  S  C  22  -0.00631     0.00020    -0.00721    -0.00271    -0.00249    -0.00069
 PX  C  22   0.00313     0.01996    -0.00905    -0.00170    -0.00783    -0.00129
 PY  C  22   0.00726     0.01850    -0.00370    -0.00322    -0.01473    -0.00667
 PZ  C  22   0.11488    -0.23810     0.31400     0.19955     0.27332     0.16848
  
  S  C  23   0.00336     0.00585     0.00391     0.00883    -0.00261     0.00701
 PX  C  23  -0.00631    -0.05049     0.00955    -0.02398     0.02454    -0.01853
 PY  C  23  -0.00432    -0.00195    -0.00516    -0.00310     0.00066    -0.00047
 PZ  C  23  -0.11220    -0.34611    -0.05634    -0.28015     0.18606    -0.19603
  
  S  C  24  -0.01436    -0.01467    -0.02103    -0.02799    -0.00257    -0.01713
 PX  C  24  -0.00669     0.02138    -0.01960    -0.00402    -0.01506    -0.00081
 PY  C  24   0.00270     0.01156     0.00412     0.01117    -0.00620     0.00614
 PZ  C  24  -0.21794    -0.20489    -0.27510    -0.34268    -0.05113    -0.19575
  
  S  H  25   0.00956    -0.00236     0.01759     0.00965     0.00299     0.00201
  
  S  H  26   0.00277     0.02034    -0.00885    -0.00025    -0.00715     0.00017
  
  S  H  27  -0.00259    -0.01904     0.00503    -0.00523     0.01077    -0.00365
  
  S  H  28   0.00627    -0.00115     0.01571     0.01445     0.00307     0.00776
  
  S  C  29   0.00373     0.01037     0.00020     0.00129    -0.00930    -0.00502
 PX  C  29   0.02089     0.04135    -0.00942    -0.00462    -0.03094    -0.01043
 PY  C  29  -0.00687     0.00477     0.00157     0.00929    -0.00799     0.00625
 PZ  C  29   0.24325     0.33359     0.11552     0.07571    -0.34020    -0.14323
  
  S  C  30   0.00352    -0.00818     0.00866     0.00486     0.00833     0.00462
 PX  C  30  -0.00124    -0.02939     0.02560     0.00508     0.02794    -0.00288
 PY  C  30   0.01910    -0.00726     0.01233    -0.00873     0.01450    -0.01130
 PZ  C  30  -0.21038     0.18542    -0.31551     0.05399    -0.31386     0.18276




    ROOT NO.   43          44          45          46          47          48

            -0.97875     0.23669     0.32182     1.28382     1.36444     1.77504
  
  
  S  C   1   0.01148    -0.00422    -0.01696     0.02072    -0.00202    -0.01237
 PX  C   1  -0.00440     0.01370     0.00037    -0.00119     0.00960    -0.00248
 PY  C   1   0.00762    -0.00583    -0.00717     0.00620    -0.00180    -0.00162
 PZ  C   1   0.22788    -0.30661    -0.19307     0.25897    -0.27301    -0.10255
  
  S  C   2  -0.02589     0.02062     0.03401    -0.04554     0.02187     0.02508
 PX  C   2  -0.00452     0.00647    -0.00113     0.00217     0.00811    -0.00320
 PY  C   2   0.00809     0.00847    -0.02457     0.02986     0.01535    -0.02280
 PZ  C   2  -0.22837     0.04513     0.33445    -0.34749    -0.00498     0.20144
  
  S  C   3   0.01725    -0.03431     0.01121    -0.02021    -0.05047     0.02806
 PX  C   3   0.00440    -0.01557     0.00884    -0.00646    -0.01159     0.00331
 PY  C   3  -0.00556    -0.00249     0.01836    -0.02839    -0.00950     0.02448
 PZ  C   3  -0.15509     0.32173    -0.09301     0.17044     0.31565    -0.20000
  
  S  C   4  -0.01219    -0.00497    -0.00741     0.03975     0.01771    -0.04586
 PX  C   4  -0.00844     0.02424     0.00908    -0.01857     0.00746     0.01092
 PY  C   4   0.01643     0.01497    -0.00125    -0.02371    -0.00574     0.02077
 PZ  C   4  -0.11273    -0.37054    -0.01259     0.31334    -0.15911    -0.21751
  
  S  C   5  -0.00522     0.01213     0.01687    -0.03958    -0.00886     0.03951
 PX  C   5   0.03467    -0.00342    -0.03565     0.01656     0.01914    -0.00379
 PY  C   5   0.00294    -0.00581    -0.00155     0.00147    -0.00413     0.00057
 PZ  C   5  -0.24104     0.03276     0.33252    -0.27924    -0.24873     0.18623
  
  S  C   6  -0.01229    -0.01360     0.01667    -0.00288    -0.02053    -0.00227
 PX  C   6  -0.02288    -0.02522     0.02807    -0.00735    -0.03863     0.00559
 PY  C   6   0.00085    -0.00642    -0.00595     0.01635    -0.00360    -0.01407
 PZ  C   6   0.17423     0.25126    -0.23985     0.07108     0.40202    -0.08026
  
  S  C   7   0.01221     0.00339    -0.01501     0.00803     0.01570    -0.00599
 PX  C   7  -0.03166    -0.01367     0.02467     0.00367     0.00728    -0.01275
 PY  C   7   0.01236    -0.00685    -0.00571    -0.00417    -0.00532     0.00838
 PZ  C   7   0.38645    -0.01070    -0.21999    -0.15369    -0.26741     0.29405
  
  S  C   8   0.00265     0.00335     0.00155    -0.01042     0.00016     0.01825
 PX  C   8   0.00477    -0.00422    -0.00411     0.00272     0.00673     0.00268
 PY  C   8  -0.02598    -0.00431     0.01117     0.02646    -0.00472    -0.03095
 PZ  C   8   0.37754     0.00792    -0.19120    -0.28014     0.14009     0.32064
  
  S  C   9  -0.00417    -0.00537     0.00045     0.00831    -0.00552    -0.01852
 PX  C   9  -0.00459     0.00566     0.00404    -0.00206    -0.00120    -0.00146
 PY  C   9  -0.00094     0.00287    -0.01017     0.00038    -0.00519     0.00968
 PZ  C   9  -0.04298     0.39841     0.18297     0.03880    -0.02721    -0.27475
  
  S  C  10  -0.00352     0.01973    -0.00602     0.00185    -0.00927     0.00806
 PX  C  10   0.01002     0.01002    -0.00952     0.00109    -0.00573     0.00354
 PY  C  10   0.00382     0.00093    -0.00134     0.00072     0.00112     0.00101
 PZ  C  10  -0.00885    -0.32674     0.30003     0.01317     0.04225    -0.24318
  
  S  C  11  -0.00196    -0.00972    -0.00525    -0.00528     0.00735     0.00167
 PX  C  11   0.00530     0.00433     0.00585    -0.00186    -0.00644    -0.01026
 PY  C  11  -0.01815    -0.00574    -0.01013     0.00415     0.01261     0.01505
 PZ  C  11  -0.35714    -0.07237    -0.23087     0.10519     0.24458     0.33842
  
  S  H  12   0.00059     0.00197     0.00268     0.00331     0.00295     0.00273
  
  S  C  13   0.01414     0.00319     0.00804    -0.01644     0.00982     0.00295
 PX  C  13   0.00366    -0.00350     0.00422     0.00033     0.00604    -0.00485
 PY  C  13   0.00211    -0.00244     0.00410     0.00206     0.00204    -0.00972
 PZ  C  13  -0.35951    -0.04421    -0.26022     0.22315    -0.14966     0.32950
  
  S  H  14  -0.00640    -0.00169     0.00736    -0.00697    -0.00791     0.00721
  
  S  H  15  -0.00533     0.00152     0.00500    -0.00471     0.00134     0.00231
  
  S  H  16   0.01290    -0.01223    -0.02378     0.03648    -0.01044    -0.02249
  
  S  H  17   0.00453    -0.00919    -0.01256     0.02576     0.00715    -0.02410
  
  S  H  18   0.01235     0.00575    -0.01486     0.00612     0.01193    -0.00085
  
  S  H  19  -0.00146    -0.00140     0.00132     0.00002     0.00282    -0.00530
  
  S  H  20  -0.00549    -0.00349    -0.00220     0.00994    -0.00105     0.00391
  
  S  C  21  -0.00716    -0.00836    -0.00993    -0.00813     0.01258     0.00204
 PX  C  21   0.01367     0.00707     0.02072     0.01933    -0.00634     0.00894
 PY  C  21  -0.01191    -0.00446    -0.01806    -0.02092     0.00160    -0.01409
 PZ  C  21   0.20947     0.06392     0.33265     0.36925    -0.02136     0.24384
  
  S  C  22   0.00620     0.00657     0.01078     0.01442    -0.00807     0.00674
 PX  C  22  -0.00107    -0.00133    -0.00203    -0.00152     0.00073    -0.00061
 PY  C  22   0.00684     0.00910     0.00749     0.01245    -0.00475     0.00928
 PZ  C  22  -0.18394    -0.26109    -0.19973    -0.30142     0.25357    -0.12711
  
  S  C  23  -0.00247    -0.00656    -0.00757    -0.01184    -0.00304    -0.01350
 PX  C  23  -0.00934     0.01376    -0.00890     0.00294    -0.01396     0.00223
 PY  C  23   0.00189    -0.00113     0.00319     0.00191     0.00191     0.00120
 PZ  C  23  -0.19788     0.18473    -0.26764    -0.07237    -0.35451    -0.11882
  
  S  C  24   0.01833     0.00406     0.03525     0.03218     0.02833     0.03632
 PX  C  24   0.00423     0.00188     0.00445     0.00562    -0.00206     0.00083
 PY  C  24  -0.00242     0.00120    -0.00413     0.00165    -0.00600    -0.00143
 PZ  C  24   0.19440     0.04450     0.32025     0.27955     0.18910     0.22963
  
  S  H  25   0.00177     0.00450     0.00215     0.00187    -0.00531    -0.00100
  
  S  H  26  -0.00443    -0.00554    -0.00880    -0.01282     0.00688    -0.00641
  
  S  H  27  -0.00151     0.00254     0.00071     0.00257     0.00238     0.00564
  
  S  H  28  -0.00849    -0.00151    -0.02120    -0.02424    -0.01712    -0.02549
  
  S  C  29   0.00673     0.01021     0.00675     0.00039    -0.01242    -0.00705
 PX  C  29   0.00872     0.01723    -0.00280    -0.00201    -0.01959    -0.01113
 PY  C  29   0.00829     0.00120     0.00317    -0.00287     0.00296    -0.00028
 PZ  C  29   0.15212     0.33269    -0.07165    -0.12820    -0.34032    -0.25413
  
  S  C  30  -0.01043     0.00315    -0.01192     0.00555    -0.01867    -0.00764
 PX  C  30  -0.00600     0.00790    -0.00569    -0.00240    -0.00654     0.00298
 PY  C  30  -0.01360     0.01072    -0.01349    -0.00134    -0.01685    -0.00411
 PZ  C  30   0.18399    -0.31694     0.05663    -0.30677     0.21997    -0.22932




    ROOT NO.   49          50          51          52          53          54

             2.37248     2.46696     2.84590     3.13730     3.31930     3.33986
  
  
  S  C   1   0.07688     0.05214    -0.16871    -0.00891    -0.14792    -0.16139
 PX  C   1   0.01836     0.02369    -0.02989     0.01069     0.02398    -0.05719
 PY  C   1   0.01386     0.00763    -0.03460    -0.00601    -0.05689     0.01580
 PZ  C   1   0.21096    -0.22092    -0.01275    -0.23568     0.00124     0.00898
  
  S  C   2  -0.13392    -0.07139     0.22626     0.00487     0.09688     0.22330
 PX  C   2  -0.01997    -0.02346     0.01765    -0.01997    -0.04240     0.01289
 PY  C   2  -0.01978    -0.04705     0.04510    -0.04613    -0.00955     0.03502
 PZ  C   2  -0.15607     0.16803     0.00566     0.25877    -0.00600    -0.03020
  
  S  C   3   0.16509     0.15526    -0.28112     0.08109    -0.03417    -0.20902
 PX  C   3   0.00475     0.03347     0.04905     0.03540     0.14164    -0.04646
 PY  C   3   0.01873     0.02821    -0.03983     0.01721    -0.04110     0.08911
 PZ  C   3   0.09166    -0.03369    -0.09309    -0.30844    -0.04015    -0.03378
  
  S  C   4  -0.16652    -0.13202     0.30416    -0.02024     0.20000    -0.08167
 PX  C   4  -0.01670    -0.03095    -0.00962    -0.03854    -0.08853     0.00120
 PY  C   4   0.00538     0.00242    -0.04171     0.00582    -0.00554    -0.14342
 PZ  C   4  -0.04064     0.07837     0.01588     0.31568     0.01203     0.02650
  
  S  C   5   0.10865     0.08093    -0.24157    -0.01452    -0.26271     0.05991
 PX  C   5   0.02704     0.04961    -0.05681     0.03183    -0.01097     0.04039
 PY  C   5  -0.00197    -0.00407     0.01459     0.00083     0.02603     0.01315
 PZ  C   5   0.14791    -0.19218     0.00235    -0.25217     0.01153    -0.01529
  
  S  C   6  -0.06318    -0.06348     0.18302     0.00921     0.24096     0.00820
 PX  C   6  -0.00317    -0.03734     0.04254    -0.01916     0.03287     0.01426
 PY  C   6  -0.00419    -0.01177     0.01160    -0.00306     0.01858    -0.06969
 PZ  C   6  -0.21217     0.22773     0.02469     0.23677     0.02146     0.00674
  
  S  C   7  -0.17281    -0.18333     0.16289    -0.07453    -0.23000     0.19054
 PX  C   7  -0.00986     0.00484    -0.07752     0.00521    -0.11032    -0.04248
 PY  C   7  -0.03537    -0.03858    -0.01583     0.00377    -0.07874    -0.00981
 PZ  C   7   0.08823    -0.10640     0.03960     0.15610     0.06431    -0.01756
  
  S  C   8   0.16820     0.13579    -0.18762     0.01480    -0.01272     0.25947
 PX  C   8   0.02678     0.02617     0.05043     0.00150     0.11671     0.08886
 PY  C   8  -0.01966    -0.02284     0.06862     0.00864     0.05878     0.01580
 PZ  C   8  -0.10655     0.08763    -0.01164    -0.15794    -0.03513    -0.01617
  
  S  C   9  -0.20549    -0.17465     0.06707    -0.01730    -0.22013    -0.32615
 PX  C   9  -0.01325    -0.01875    -0.07676    -0.00019    -0.07717     0.03413
 PY  C   9   0.01162     0.01689    -0.04581     0.01788     0.12071    -0.11498
 PZ  C   9   0.24470    -0.24895     0.00262     0.01934     0.08637    -0.00356
  
  S  C  10   0.21753     0.20308    -0.04926     0.04328     0.39482    -0.04757
 PX  C  10  -0.00076    -0.00266     0.08684    -0.01965    -0.00432    -0.07861
 PY  C  10   0.01598     0.00556     0.03119    -0.01401     0.00244     0.16920
 PZ  C  10  -0.22779     0.27076    -0.01992    -0.01598    -0.07555     0.01245
  
  S  C  11  -0.18506    -0.19442    -0.11196     0.01084    -0.21588     0.15630
 PX  C  11   0.02327     0.01821    -0.08353     0.03309     0.13119     0.02496
 PY  C  11  -0.02871    -0.04569    -0.07853     0.01265     0.05514     0.03370
 PZ  C  11   0.11887    -0.12251    -0.01130    -0.13731     0.08978    -0.01999
  
  S  H  12   0.10174     0.09856     0.06199    -0.01081     0.12663    -0.04740
  
  S  C  13   0.19670     0.16906     0.10044    -0.02036     0.00938     0.34640
 PX  C  13   0.01474     0.00867     0.09406    -0.01544    -0.09986    -0.02791
 PY  C  13  -0.03066    -0.02804     0.04161    -0.00941    -0.06689    -0.04558
 PZ  C  13  -0.10417     0.11642     0.02876     0.13421    -0.08105     0.01489
  
  S  H  14   0.09798     0.10121    -0.10611     0.04784     0.13658    -0.08069
  
  S  H  15  -0.04213    -0.03642     0.09676    -0.00296     0.07737     0.10571
  
  S  H  16   0.08240     0.03024    -0.14424    -0.02126    -0.08848    -0.11871
  
  S  H  17  -0.06099    -0.04439     0.14642     0.00969     0.16378    -0.00723
  
  S  H  18   0.03999     0.03715    -0.10985    -0.00727    -0.14823     0.00862
  
  S  H  19  -0.09303    -0.07502     0.11257    -0.01578    -0.01626    -0.12809
  
  S  H  20  -0.11671    -0.10749    -0.07529     0.01347    -0.02699    -0.19573
  
  S  C  21  -0.13167    -0.17063    -0.24862     0.05980     0.09372     0.25703
 PX  C  21   0.04323     0.06615     0.05549    -0.01855     0.02236    -0.02606
 PY  C  21   0.00912    -0.00933    -0.00840     0.01811     0.02404     0.01640
 PZ  C  21  -0.16582     0.14168    -0.06013    -0.23912     0.06719     0.02372
  
  S  C  22   0.07478     0.10820     0.17668    -0.05387    -0.13051    -0.20188
 PX  C  22  -0.02053    -0.01902    -0.02898     0.00076     0.02144    -0.00556
 PY  C  22  -0.01947    -0.01752    -0.01921     0.00073    -0.03888     0.06860
 PZ  C  22   0.23424    -0.21583     0.06017     0.24416    -0.05944    -0.03051
  
  S  C  23  -0.07951    -0.06581    -0.14337     0.01740     0.18771    -0.01512
 PX  C  23   0.01259     0.01947     0.01063    -0.00359    -0.01623     0.08148
 PY  C  23   0.01287     0.01684     0.02962    -0.01011    -0.01328    -0.05672
 PZ  C  23  -0.23537     0.24841    -0.04348    -0.26378     0.04666     0.02895
  
  S  C  24   0.14029     0.08300     0.18546    -0.00193    -0.20603     0.13879
 PX  C  24  -0.02896    -0.02556    -0.02050     0.00708    -0.00292    -0.05950
 PY  C  24  -0.04371    -0.03731    -0.04456     0.01382     0.02225    -0.04687
 PZ  C  24   0.15598    -0.20425     0.01808     0.27502    -0.03070    -0.04031
  
  S  H  25   0.07497     0.08969     0.14807    -0.03173    -0.07689    -0.13018
  
  S  H  26  -0.04674    -0.07542    -0.11501     0.04111     0.07696     0.14734
  
  S  H  27   0.05293     0.04094     0.08880    -0.00836    -0.11959     0.02467
  
  S  H  28  -0.07906    -0.04625    -0.11838    -0.00113     0.12819    -0.04986
  
  S  C  29   0.19999     0.22785     0.29183    -0.05775    -0.04815    -0.17586
 PX  C  29  -0.01716    -0.00146     0.03914    -0.00400    -0.04783    -0.11583
 PY  C  29   0.01933     0.01042     0.06456    -0.01512    -0.11861     0.10906
 PZ  C  29   0.00424    -0.01831     0.03764     0.28552    -0.10480     0.01623
  
  S  C  30  -0.20708    -0.17662    -0.25307     0.04627     0.17081    -0.19598
 PX  C  30   0.00563     0.00435    -0.05937     0.00804     0.04848     0.12661
 PY  C  30   0.02350     0.04611     0.04003    -0.01246     0.04137    -0.09736
 PZ  C  30  -0.02799     0.03240    -0.05174    -0.29519     0.10098    -0.00465




    ROOT NO.   55          56          57          58          59          60

             3.57240     3.73053     3.82497     3.87035     4.14658     4.18429
  
  
  S  C   1  -0.00718    -0.24634    -0.29391     0.18640    -0.06279    -0.14083
 PX  C   1   0.00442     0.02591     0.09434     0.09604    -0.05012    -0.10037
 PY  C   1  -0.00939    -0.04234    -0.08342    -0.05571     0.01102     0.04432
 PZ  C   1   0.12438     0.03201     0.01931    -0.01787     0.01846     0.02917
  
  S  C   2  -0.00028     0.09236    -0.04404    -0.29098     0.14509     0.28130
 PX  C   2   0.00441    -0.09575    -0.17024     0.00197    -0.01163    -0.01684
 PY  C   2   0.02835    -0.03439    -0.07298     0.01069    -0.04085    -0.06794
 PZ  C   2  -0.16572    -0.05371    -0.02456     0.05254    -0.04702    -0.07657
  
  S  C   3  -0.04525     0.08821     0.30198     0.15317     0.04700    -0.00577
 PX  C   3   0.02292     0.01220    -0.03461     0.04305     0.13042     0.12139
 PY  C   3  -0.03109     0.08144     0.08299    -0.16455     0.01795     0.09471
 PZ  C   3   0.26648     0.06110     0.07385     0.01892     0.02885     0.02959
  
  S  C   4   0.06432    -0.15008    -0.25849     0.19290     0.02548    -0.04303
 PX  C   4   0.00628    -0.06918    -0.11054    -0.09343     0.08307     0.14265
 PY  C   4   0.00325    -0.01767     0.08200     0.11195     0.08382     0.04824
 PZ  C   4  -0.27222    -0.02708    -0.00494    -0.03690     0.01041     0.01613
  
  S  C   5  -0.04774    -0.06256    -0.12230    -0.25767     0.13456     0.27042
 PX  C   5  -0.02565     0.10110     0.17429    -0.03180    -0.00929    -0.02399
 PY  C   5   0.00334     0.04902     0.06889    -0.02867     0.03015     0.04977
 PZ  C   5   0.15911     0.02685     0.02305     0.03099    -0.01553    -0.02751
  
  S  C   6   0.03834     0.22317     0.36007     0.08819    -0.01141    -0.06865
 PX  C   6   0.01355     0.02229     0.02029    -0.00626    -0.01481    -0.01148
 PY  C   6   0.01097    -0.06607    -0.06232     0.13647    -0.06423    -0.13276
 PZ  C   6  -0.11999     0.00443     0.02948     0.00411    -0.00740    -0.01453
  
  S  C   7  -0.05185    -0.07254    -0.05177    -0.16262    -0.27430    -0.20927
 PX  C   7  -0.02454     0.01560     0.13678     0.04324    -0.02241    -0.05093
 PY  C   7  -0.02860    -0.00138     0.07247     0.04062     0.07930     0.03648
 PZ  C   7  -0.24197    -0.03140    -0.00967     0.00910     0.00227    -0.00692
  
  S  C   8  -0.01925     0.17791     0.06148    -0.19087    -0.24267    -0.19489
 PX  C   8   0.03417    -0.01003    -0.13187     0.05856     0.01763    -0.04033
 PY  C   8  -0.00157    -0.02338    -0.06827     0.02599    -0.03439    -0.05324
 PZ  C   8   0.24597     0.02375     0.00472     0.01904    -0.01210    -0.00856
  
  S  C   9  -0.05742    -0.08206     0.20908     0.02574     0.00223     0.15980
 PX  C   9  -0.02725     0.07124     0.05355    -0.10176    -0.12276    -0.06124
 PY  C   9   0.02815     0.04577    -0.06371    -0.03764    -0.09113     0.09567
 PZ  C   9  -0.33062    -0.02595    -0.00424    -0.00794     0.01041     0.00409
  
  S  C  10   0.09700     0.04351    -0.21062     0.00999    -0.03272     0.09166
 PX  C  10  -0.00649    -0.06192     0.00601    -0.08414    -0.16700     0.05667
 PY  C  10   0.00155     0.00748    -0.08319    -0.06695    -0.07629    -0.13632
 PZ  C  10   0.33786     0.03402    -0.00685    -0.00079    -0.01438     0.01178
  
  S  C  11  -0.05662     0.10898     0.04715     0.13521     0.32616    -0.16193
 PX  C  11   0.03880     0.06364    -0.09493     0.06347     0.02979     0.00917
 PY  C  11  -0.00040     0.05415    -0.05913     0.03459    -0.05218     0.03783
 PZ  C  11  -0.24995    -0.02262     0.00246    -0.00033     0.01315    -0.00498
  
  S  H  12   0.02823    -0.07248    -0.03779    -0.08325    -0.29565     0.13067
  
  S  C  13   0.01808    -0.13000    -0.00102     0.12230     0.27609    -0.17262
 PX  C  13  -0.02383    -0.07828     0.10355     0.05633    -0.04391     0.08671
 PY  C  13  -0.01890    -0.05259     0.07647     0.04246     0.06034     0.00133
 PZ  C  13   0.24593     0.00685     0.00313    -0.00097     0.00522    -0.01213
  
  S  H  14   0.02972     0.06075     0.03245     0.10278     0.27323     0.18756
  
  S  H  15   0.00580     0.14969     0.18048    -0.11714     0.01197     0.05835
  
  S  H  16   0.00410    -0.05741     0.03706     0.18387    -0.14251    -0.24257
  
  S  H  17   0.02774     0.05541     0.09116     0.16222    -0.13171    -0.23397
  
  S  H  18  -0.02452    -0.12838    -0.21310    -0.06190    -0.01771     0.01755
  
  S  H  19   0.01435    -0.12958    -0.05580     0.12383     0.22775     0.16162
  
  S  H  20  -0.01922     0.11727    -0.00300    -0.08120    -0.27405     0.15291
  
  S  C  21   0.03203    -0.05030     0.00196     0.23952    -0.16815     0.21608
 PX  C  21   0.01258    -0.14810     0.09029    -0.03017    -0.04411     0.05162
 PY  C  21   0.02875    -0.11872     0.06975    -0.03740     0.01911    -0.01872
 PZ  C  21  -0.15397    -0.01668     0.00777     0.02031     0.00845     0.00315
  
  S  C  22  -0.07818     0.36607    -0.19859    -0.05731     0.07159    -0.11118
 PX  C  22   0.00094    -0.00110    -0.00627    -0.02118    -0.00948    -0.00751
 PY  C  22  -0.02222     0.11647    -0.06423     0.13532    -0.05303     0.08440
 PZ  C  22   0.12898     0.02667    -0.01502    -0.01850    -0.00280    -0.00669
  
  S  C  23   0.07220    -0.36312     0.18078    -0.20511     0.02408    -0.07318
 PX  C  23   0.00101    -0.07419     0.05518     0.08317    -0.08036     0.10430
 PY  C  23  -0.01226     0.05761    -0.03355    -0.04669     0.01777    -0.04138
 PZ  C  23  -0.14291    -0.00217     0.00322     0.02913    -0.00306     0.01255
  
  S  C  24  -0.04587     0.10477    -0.00135     0.29289    -0.18382     0.25615
 PX  C  24  -0.00895     0.14402    -0.09247    -0.00605     0.03140    -0.03536
 PY  C  24   0.00378     0.08564    -0.05897     0.01455    -0.03509     0.04094
 PZ  C  24   0.18158    -0.01368    -0.00075    -0.06806     0.02925    -0.04906
  
  S  H  25  -0.01923     0.02144     0.01189    -0.14906     0.16139    -0.18002
  
  S  H  26   0.05505    -0.24452     0.13569     0.04782    -0.02172     0.06064
  
  S  H  27  -0.04209     0.21985    -0.10976     0.13129     0.01879     0.02144
  
  S  H  28   0.02852    -0.07886     0.00393    -0.18893     0.17371    -0.21561
  
  S  C  29   0.00300    -0.22950     0.15928    -0.16862    -0.06684     0.01534
 PX  C  29  -0.00868     0.08198    -0.02999    -0.11846     0.11479    -0.13479
 PY  C  29  -0.02648    -0.04962     0.07668     0.09319     0.09225    -0.01586
 PZ  C  29   0.26788     0.02618    -0.01019    -0.00146    -0.01635     0.00354
  
  S  C  30   0.02891     0.21916    -0.18190    -0.14969    -0.00204    -0.07419
 PX  C  30   0.01926    -0.02158    -0.02575     0.01482     0.14838    -0.11775
 PY  C  30   0.01942    -0.10837     0.05438    -0.15672     0.02227    -0.07424
 PZ  C  30  -0.27154    -0.00459    -0.00258     0.01567     0.00359     0.00889




    ROOT NO.   61          62          63          64          65          66

             5.18953     5.38875     5.66040     5.73020     6.12763     6.39148
  
  
  S  C   1  -0.11918    -0.00867    -0.14198    -0.30354    -0.07320    -0.02449
 PX  C   1   0.09867     0.00443     0.15778     0.06819     0.11331     0.05094
 PY  C   1  -0.01315     0.00269    -0.00594     0.27002    -0.00384    -0.00347
 PZ  C   1   0.00040     0.00008     0.00032    -0.00439    -0.00116    -0.00207
  
  S  C   2  -0.12800    -0.00359    -0.18670    -0.05862    -0.12551    -0.05795
 PX  C   2  -0.09746    -0.00529    -0.11674    -0.20322    -0.06219    -0.02182
 PY  C   2   0.02677     0.00167     0.14252     0.09874     0.20661     0.15420
 PZ  C   2   0.02663     0.00115     0.04649     0.02623     0.04008     0.02411
  
  S  C   3   0.07851    -0.00169    -0.03947     0.01199    -0.15965    -0.13871
 PX  C   3  -0.13983    -0.00891    -0.08304     0.03100     0.07340     0.08408
 PY  C   3  -0.01150     0.00311    -0.10881    -0.04199    -0.16448    -0.11392
 PZ  C   3  -0.00252    -0.00138    -0.02589    -0.00244    -0.03520    -0.02502
  
  S  C   4  -0.06660    -0.00460     0.06039     0.01219     0.15786     0.10755
 PX  C   4   0.10597     0.00578     0.13271    -0.02545     0.07440     0.03593
 PY  C   4   0.11713    -0.00039     0.02862     0.05026    -0.14565    -0.15106
 PZ  C   4   0.02414     0.00088     0.01345    -0.00536    -0.01120    -0.01445
  
  S  C   5   0.14232     0.00794     0.18141    -0.08533     0.11431     0.04822
 PX  C   5   0.02867    -0.00163    -0.05085    -0.04086    -0.11777    -0.08090
 PY  C   5   0.08963     0.00346     0.15747    -0.24784     0.15919     0.09592
 PZ  C   5  -0.01764    -0.00095    -0.02648     0.00662    -0.02155    -0.01038
  
  S  C   6   0.10051     0.00003     0.11377    -0.31475     0.06925     0.02948
 PX  C   6  -0.04087     0.00087    -0.06734     0.29315    -0.05782    -0.02676
 PY  C   6  -0.10644    -0.00654    -0.15193    -0.08757    -0.09880    -0.03744
 PZ  C   6   0.01197     0.00036     0.01026     0.00411     0.00348     0.00118
  
  S  C   7   0.18431     0.01292     0.09629    -0.04544    -0.08151    -0.09534
 PX  C   7   0.07569    -0.00267    -0.01588    -0.05034    -0.12357    -0.12459
 PY  C   7  -0.08462    -0.02130    -0.11917     0.02915     0.11833     0.24481
 PZ  C   7  -0.00336     0.00031     0.00002     0.00095     0.00047    -0.00343
  
  S  C   8  -0.22254    -0.00287    -0.11618    -0.04222     0.09892     0.12730
 PX  C   8  -0.00163    -0.01091     0.12561    -0.00795     0.01702    -0.13625
 PY  C   8  -0.09551    -0.00231    -0.04097    -0.04954     0.14069     0.19800
 PZ  C   8  -0.01084     0.00003    -0.00714    -0.00203     0.00802     0.01446
  
  S  C   9   0.04419     0.01938    -0.16731     0.02325    -0.02509     0.16831
 PX  C   9  -0.15972    -0.00454    -0.07847    -0.01533     0.08512     0.10341
 PY  C   9  -0.07869     0.02544     0.09250     0.01128     0.03390    -0.14994
 PZ  C   9  -0.00059     0.00071     0.00522     0.00036    -0.00085    -0.00544
  
  S  C  10   0.00337     0.02741     0.13778     0.01614    -0.01904    -0.16300
 PX  C  10   0.17391     0.02634    -0.06513     0.00217    -0.07807     0.10252
[...]
  S   H   18   -0.0899   -0.0406   -0.0468   -0.0286    0.0536    0.0006    0.2956   -0.0712
  S   H   19   -0.1405   -0.2440    0.2894    0.1409   -0.0326   -0.0129    0.0764    0.2224
  S   H   20    0.1835   -0.2409    0.2370   -0.1129    0.0998    0.0540   -0.0140   -0.1972
  S   C   21    0.1273   -0.0625   -0.0332    0.0400   -0.0026    0.0786    0.0004    0.0101
  Px  C   21    0.1182   -0.0899   -0.1490    0.3370    0.0302   -0.0949    0.0074    0.0785
  Py  C   21   -0.1426    0.0884    0.0629   -0.1246   -0.0023    0.2645    0.0001    0.0523
  Pz  C   21   -0.0113    0.0076    0.0093   -0.0254   -0.0034    0.0180   -0.0005   -0.0033
  S   C   22    0.0567   -0.0227    0.0284   -0.0583   -0.0053   -0.1131   -0.0025   -0.0523
  Px  C   22    0.0658   -0.0334    0.0402   -0.0826   -0.0020    0.4933    0.0102    0.1688
  Py  C   22    0.0860   -0.0369   -0.0339    0.0688    0.0087   -0.0393   -0.0010   -0.0178
  Pz  C   22    0.0045   -0.0016   -0.0018    0.0054    0.0011   -0.0046   -0.0001   -0.0017
  S   C   23   -0.0475    0.0159    0.0361   -0.0682   -0.0055    0.0972    0.0024    0.0112
  Px  C   23   -0.1107    0.0467    0.0083   -0.0028    0.0070   -0.1992   -0.0062    0.0431
  Py  C   23   -0.0035   -0.0000    0.0449   -0.0889   -0.0043   -0.4733   -0.0120   -0.1112
  Pz  C   23   -0.0010    0.0005    0.0008   -0.0030   -0.0009    0.0086    0.0002   -0.0053
  S   C   24   -0.1239    0.0545   -0.0089   -0.0049   -0.0058   -0.0812   -0.0019    0.0517
  Px  C   24    0.0567   -0.0250   -0.0258    0.0697    0.0136   -0.1789   -0.0050    0.0248
  Py  C   24   -0.2220    0.1523   -0.1357    0.3176    0.0301    0.2276    0.0019   -0.1635
  Pz  C   24    0.0175   -0.0066    0.0005    0.0020    0.0008    0.0127    0.0003   -0.0074
  S   H   25   -0.2083    0.1246    0.1214   -0.2485   -0.0146    0.1530   -0.0032   -0.0080
  S   H   26   -0.0875    0.0420   -0.0348    0.0669    0.0009   -0.2948   -0.0062   -0.1001
  S   H   27    0.0824   -0.0342   -0.0403    0.0666   -0.0007    0.3235    0.0088    0.0517
  S   H   28    0.2311   -0.1368    0.0911   -0.1907   -0.0112   -0.1604   -0.0023    0.0871
  S   C   29    0.1475   -0.1064   -0.0955    0.2762    0.0459    0.0184    0.0015    0.0210
  Px  C   29   -0.1090    0.0587   -0.0019    0.0870    0.0327   -0.1125    0.0088    0.0868
  Py  C   29    0.1516   -0.1438    0.0138   -0.1435   -0.0564   -0.0238    0.0004    0.0622
  Pz  C   29    0.0006    0.0024    0.0103   -0.0129    0.0023    0.0050   -0.0003   -0.0045
  S   C   30   -0.1744    0.1326   -0.0851    0.2612    0.0496   -0.0119    0.0014    0.0012
  Px  C   30   -0.0785    0.0871    0.0140   -0.0596   -0.0201    0.0827   -0.0020   -0.2152
  Py  C   30    0.1554   -0.1074   -0.0261    0.1759    0.0526    0.0881   -0.0017   -0.0805
  Pz  C   30   -0.0081    0.0039   -0.0069    0.0131    0.0000    0.0070   -0.0002   -0.0088


   Root No.      73        74        75        76        77        78        79        80

                26 a"     31 a'     32 a'     27 a"     28 a"     33 a'     34 a'     80 ????

                 9.357     9.581    10.092    10.706    10.901    11.626    11.812    12.118
  
  S   C    1   -0.0223    0.0558   -0.0322   -0.0649   -0.0269    0.0148   -0.0008   -0.0074
  Px  C    1   -0.1358    0.2238    0.0771   -0.2014    0.2006   -0.1479   -0.1535    0.1195
  Py  C    1    0.0011    0.0951   -0.2036   -0.0864   -0.2383    0.1487    0.1067   -0.1117
  Pz  C    1   -0.0090    0.0102    0.0124   -0.0073    0.0204   -0.0131   -0.0138    0.0128
  S   C    2    0.0776   -0.0837   -0.0748    0.0266   -0.1035    0.0697    0.0128    0.0042
  Px  C    2   -0.1184    0.2133    0.0257   -0.2278    0.1162   -0.0805   -0.1529    0.1335
  Py  C    2    0.2130   -0.1692   -0.1822   -0.0474   -0.1804    0.1213   -0.0623    0.0895
  Pz  C    2    0.0026   -0.0003   -0.0016   -0.0050   -0.0002    0.0007   -0.0028    0.0026
  S   C    3   -0.0038   -0.0400    0.0055    0.0678   -0.0355    0.0293    0.0175   -0.0027
  Px  C    3    0.2090   -0.1395   -0.2326   -0.0771   -0.0519   -0.1991    0.0760   -0.1984
  Py  C    3    0.0634   -0.0113   -0.1013   -0.0962   -0.1923    0.2693   -0.1943    0.3031
  Pz  C    3    0.0076   -0.0108   -0.0097    0.0036   -0.0119    0.0041    0.0009    0.0005
  S   C    4    0.0164   -0.0396    0.0033    0.0630    0.0259   -0.0234   -0.0094    0.0140
  Px  C    4    0.1149   -0.1589    0.2171   -0.0696    0.2305   -0.1270    0.1074   -0.2368
  Py  C    4    0.0250   -0.1104    0.1324    0.0451   -0.0620    0.3195   -0.1752    0.3038
  Pz  C    4    0.0054   -0.0094    0.0175   -0.0063    0.0064    0.0147   -0.0083    0.0091
  S   C    5    0.0707   -0.0977    0.0517    0.0504    0.0894   -0.0687   -0.0170    0.0015
  Px  C    5    0.0630   -0.0686    0.1446   -0.1373    0.1398   -0.0758    0.1273   -0.2611
  Py  C    5   -0.2289    0.3019   -0.0661   -0.1988   -0.1443    0.1298    0.0856   -0.1178
  Pz  C    5   -0.0019    0.0033    0.0113   -0.0188    0.0062   -0.0008    0.0161   -0.0285
  S   C    6   -0.0498    0.0549    0.0522   -0.0608    0.0533   -0.0228   -0.0015   -0.0240
  Px  C    6   -0.2078    0.2011    0.1675   -0.1700    0.1315   -0.0451    0.0013   -0.0568
  Py  C    6   -0.0582    0.1332   -0.1410   -0.1611   -0.2507    0.1929    0.1841   -0.2266
  Pz  C    6   -0.0268    0.0282    0.0189   -0.0254    0.0135   -0.0030    0.0027   -0.0109
  S   C    7   -0.1033    0.0285    0.0678    0.0842   -0.0361    0.0678    0.0332    0.0257
  Px  C    7    0.1393   -0.1419   -0.1527    0.0134   -0.0726   -0.1393    0.1260   -0.1996
  Py  C    7   -0.2687    0.0208    0.0817    0.2234   -0.1285    0.0801    0.1461   -0.0224
  Pz  C    7    0.0260   -0.0136   -0.0212   -0.0099   -0.0010   -0.0176    0.0031   -0.0151
  S   C    8   -0.0253    0.0368   -0.0713    0.0633    0.0244   -0.0799   -0.0232   -0.0099
  Px  C    8   -0.0355   -0.0447   -0.0215    0.2206    0.1377   -0.0371   -0.1798    0.0881
  Py  C    8    0.1127   -0.1688    0.2037   -0.0614    0.0194    0.1736   -0.0296    0.1010
  Pz  C    8    0.0074   -0.0108    0.0133   -0.0059   -0.0011    0.0128    0.0004    0.0046
  S   C    9    0.0023    0.0357   -0.0321   -0.0052   -0.0080   -0.0325   -0.0145    0.0088
  Px  C    9   -0.0410   -0.0131   -0.0772    0.2541    0.1774   -0.1131   -0.1918    0.0767
  Py  C    9   -0.0354    0.0445    0.0946    0.1589    0.1068    0.1340    0.4147    0.0589
  Pz  C    9    0.0007   -0.0002    0.0001   -0.0023   -0.0010    0.0009    0.0050   -0.0011
  S   C   10   -0.0064    0.0377    0.0440    0.0087    0.0033    0.0402    0.0191    0.0149
  Px  C   10   -0.2256    0.0105   -0.0532    0.2362   -0.2044   -0.0931   -0.2139   -0.0923
  Py  C   10   -0.1324   -0.0396    0.0959    0.1409   -0.0984    0.1381    0.3917   -0.0521
  Pz  C   10   -0.0058    0.0025    0.0027    0.0054   -0.0040    0.0030   -0.0029    0.0002
  S   C   11    0.0966    0.0381    0.0731   -0.0624    0.0495    0.0854    0.0280    0.0055
  Px  C   11   -0.1617    0.0459    0.0004    0.2099   -0.1411   -0.0107   -0.1976   -0.0871
  Py  C   11    0.2748    0.1475    0.1915   -0.0739    0.0505    0.1953   -0.0269   -0.0572
  Pz  C   11   -0.0163   -0.0032   -0.0073    0.0106   -0.0092   -0.0100   -0.0070   -0.0016
  S   H   12    0.1824    0.0572    0.0900   -0.0855    0.0702    0.1055    0.0439   -0.0113
  S   C   13    0.0362    0.0334   -0.0619   -0.0802   -0.0523   -0.0760   -0.0360    0.0217
  Px  C   13    0.0978    0.1696   -0.1504    0.0364    0.0121   -0.1770    0.1501    0.1824
  Py  C   13   -0.1024   -0.0345    0.0875    0.2331    0.1300    0.0851    0.1680    0.0249
  Pz  C   13   -0.0006    0.0005   -0.0008   -0.0002   -0.0010   -0.0022    0.0007    0.0012
  S   H   14   -0.1664    0.0481    0.0812    0.0929   -0.0435    0.0846    0.0383    0.0462
  S   H   15   -0.0470    0.1321   -0.0818   -0.1163   -0.0560    0.0287    0.0016   -0.0149
  S   H   16    0.1355   -0.1334   -0.0980    0.0291   -0.1212    0.0862    0.0050    0.0164
  S   H   17    0.1316   -0.1685    0.0709    0.0628    0.1115   -0.0895   -0.0107   -0.0091
  S   H   18   -0.1329    0.1289    0.1053   -0.1067    0.0821   -0.0303    0.0006   -0.0335
  S   H   19   -0.0658    0.0737   -0.1108    0.0803    0.0293   -0.1020   -0.0363   -0.0322
  S   H   20    0.0774    0.0663   -0.0845   -0.0892   -0.0590   -0.0953   -0.0382    0.0395
  S   C   21   -0.0765   -0.0900   -0.0732   -0.0520    0.0826    0.0420    0.0328    0.0289
  Px  C   21    0.1221    0.0438    0.1978   -0.1568   -0.1326   -0.0894    0.1161    0.2290
  Py  C   21   -0.2227   -0.2695   -0.1221   -0.1909    0.1462    0.0703    0.1120    0.1569
  Pz  C   21   -0.0183   -0.0154   -0.0205    0.0000    0.0175    0.0097   -0.0009   -0.0057
  S   C   22    0.0319    0.0675   -0.0573    0.0766    0.0391    0.0137    0.0024   -0.0204
  Px  C   22   -0.1026   -0.1981    0.1491   -0.1746   -0.0888   -0.0271   -0.0114    0.0305
  Py  C   22   -0.1120   -0.1370   -0.1854   -0.1540    0.2251    0.0918    0.2128    0.2702
  Pz  C   22   -0.0035   -0.0040   -0.0073   -0.0049    0.0080    0.0028    0.0074    0.0093
  S   C   23    0.0572    0.0693    0.0491    0.0773   -0.0337   -0.0152    0.0007   -0.0067
  Px  C   23   -0.1508   -0.2125    0.0772   -0.2094   -0.1417   -0.0552   -0.1718   -0.1625
  Py  C   23   -0.1164   -0.0870   -0.2393   -0.0709    0.1998    0.0735    0.1217    0.1379
  Pz  C   23    0.0102    0.0153   -0.0077    0.0148    0.0107    0.0032    0.0133    0.0131
  S   C   24   -0.0715   -0.1000    0.0811   -0.0540   -0.0914   -0.0476   -0.0328   -0.0233
  Px  C   24   -0.1528   -0.2113   -0.0006   -0.2332   -0.0481    0.0018   -0.1499   -0.1477
  Py  C   24    0.1446    0.1827   -0.2092   -0.0101    0.1829    0.1181   -0.0368   -0.0543
  Pz  C   24    0.0107    0.0150   -0.0120    0.0088    0.0137    0.0072    0.0050    0.0033
  S   H   25   -0.1474   -0.1377   -0.1301   -0.0328    0.1189    0.0680    0.0165    0.0011
  S   H   26    0.0656    0.1234   -0.0798    0.1067    0.0438    0.0139   -0.0001   -0.0245
  S   H   27    0.1055    0.1070    0.1068    0.0976   -0.0649   -0.0247   -0.0110   -0.0211
  S   H   28   -0.1088   -0.1423    0.1057   -0.0552   -0.1092   -0.0651   -0.0218   -0.0094
  S   C   29   -0.0206   -0.0497   -0.0159   -0.0602    0.0422    0.0252    0.0152    0.0137
  Px  C   29    0.1759    0.1045    0.2748   -0.1031   -0.2127   -0.1248    0.0933    0.2044
  Py  C   29    0.1275    0.1133    0.1095    0.0400    0.1454    0.3579   -0.1585   -0.2146
  Pz  C   29   -0.0069   -0.0033   -0.0125    0.0075    0.0082    0.0034   -0.0027   -0.0088
  S   C   30   -0.0292   -0.0510    0.0046   -0.0640   -0.0272   -0.0134   -0.0202   -0.0136
  Px  C   30    0.1023    0.1695   -0.2233   -0.0437   -0.0174   -0.2342    0.0990    0.1757
  Py  C   30    0.0467    0.0405   -0.1695   -0.0580    0.2667    0.3121   -0.1624   -0.2314
  Pz  C   30    0.0030    0.0044   -0.0111   -0.0050    0.0065    0.0026   -0.0027   -0.0025


   Root No.      81        82        83        84

                35 a'     36 a'     29 a"     30 a"  

                12.694    12.747    13.118    14.426
  
  S   C    1   -0.0552    0.0284   -0.0106    0.0403
  Px  C    1   -0.1007    0.2780   -0.1666    0.1176
  Py  C    1   -0.0929   -0.1199    0.0919    0.0273
  Pz  C    1   -0.0015    0.0202   -0.0123    0.0051
  S   C    2   -0.0288   -0.0021    0.0098    0.0322
  Px  C    2   -0.1563    0.3059   -0.1690    0.1662
  Py  C    2   -0.1445    0.1431   -0.0509    0.1385
  Pz  C    2   -0.0053    0.0060   -0.0024    0.0047
  S   C    3    0.0139   -0.0125    0.0003    0.0207
  Px  C    3   -0.1356    0.1865   -0.2349    0.2365
  Py  C    3   -0.1722    0.2130   -0.0088    0.1354
  Pz  C    3   -0.0084    0.0130   -0.0099    0.0158
  S   C    4    0.0145   -0.0058    0.0106    0.0183
  Px  C    4   -0.2447   -0.1292    0.1153    0.1939
  Py  C    4   -0.2026    0.0366    0.1845    0.1419
  Pz  C    4   -0.0251   -0.0029    0.0162    0.0160
  S   C    5    0.0072    0.0173   -0.0164    0.0203
  Px  C    5   -0.2598   -0.1458    0.1173    0.1687
  Py  C    5   -0.1568   -0.1177    0.1100    0.0546
  Pz  C    5   -0.0278   -0.0190    0.0155    0.0154
  S   C    6   -0.0590    0.0041    0.0076    0.0385
  Px  C    6   -0.1366    0.0112    0.0163    0.0829
  Py  C    6   -0.1971   -0.2320    0.1829    0.0655
  Pz  C    6   -0.0215   -0.0023    0.0054    0.0118
  S   C    7    0.0521   -0.0116    0.0075    0.0099
  Px  C    7   -0.0950    0.1731   -0.2336    0.2621
  Py  C    7    0.0520    0.1079   -0.1060    0.1613
  Pz  C    7   -0.0106    0.0111   -0.0151    0.0139
  S   C    8    0.0553   -0.0315   -0.0040    0.0044
  Px  C    8   -0.1745   -0.1530    0.2114    0.2473
  Py  C    8   -0.2047    0.0166    0.1345    0.1284
  Pz  C    8   -0.0125    0.0024    0.0061    0.0064
  S   C    9    0.0541   -0.0116    0.0042   -0.0036
  Px  C    9   -0.1000   -0.1722    0.2093    0.2434
  Py  C    9    0.0976    0.2467    0.1352    0.1444
  Pz  C    9    0.0010    0.0039   -0.0021   -0.0014
  S   C   10    0.0517   -0.0237    0.0032   -0.0003
  Px  C   10    0.0044   -0.1575   -0.2195    0.2682
  Py  C   10    0.0595    0.2828   -0.1047    0.1585
  Pz  C   10    0.0018   -0.0028   -0.0040    0.0061
  S   C   11    0.0637   -0.0135   -0.0104   -0.0022
  Px  C   11    0.0696   -0.1888   -0.2216    0.2648
  Py  C   11    0.1781   -0.0957   -0.1394    0.1359
  Pz  C   11   -0.0040   -0.0031   -0.0026    0.0043
  S   H   12    0.0586    0.0144   -0.0078   -0.0057
  S   C   13    0.0469   -0.0256    0.0159   -0.0087
  Px  C   13    0.1601    0.0363    0.2747    0.2340
  Py  C   13    0.0034    0.0982    0.1117    0.1413
  Pz  C   13    0.0023    0.0004    0.0025    0.0019
  S   H   14    0.0408    0.0147    0.0126    0.0061
  S   H   15   -0.0790    0.0295   -0.0063    0.0475
  S   H   16   -0.0302   -0.0064    0.0198    0.0208
  S   H   17    0.0171    0.0207   -0.0269    0.0100
  S   H   18   -0.0771    0.0100    0.0055    0.0443
  S   H   19    0.0456   -0.0495   -0.0118    0.0003
  S   H   20    0.0317   -0.0373    0.0225   -0.0005
  S   C   21   -0.0079   -0.0238   -0.0252   -0.0180
  Px  C   21    0.1481   -0.2366   -0.1276    0.1770
  Py  C   21    0.0554   -0.1734   -0.1345    0.0626
  Pz  C   21   -0.0062    0.0058    0.0015   -0.0079
  S   C   22   -0.0615    0.0305    0.0027   -0.0423
  Px  C   22    0.1258   -0.0478    0.0072    0.0789
  Py  C   22    0.0135   -0.2713   -0.2289    0.0699
  Pz  C   22   -0.0003   -0.0089   -0.0075    0.0017
  S   C   23   -0.0755    0.0085   -0.0256   -0.0451
  Px  C   23    0.2680    0.1458    0.2387    0.1130
  Py  C   23   -0.0034   -0.1287   -0.1086    0.0280
  Pz  C   23   -0.0192   -0.0113   -0.0173   -0.0076
  S   C   24    0.0075    0.0273    0.0270   -0.0205
  Px  C   24    0.3213    0.1239    0.2381    0.1603
  Py  C   24    0.1768    0.0125    0.0702    0.1256
  Pz  C   24   -0.0026   -0.0038   -0.0046    0.0017
  S   H   25   -0.0181   -0.0109   -0.0278   -0.0191
  S   H   26   -0.0690    0.0313   -0.0007   -0.0417
  S   H   27   -0.0728    0.0232   -0.0110   -0.0424
  S   H   28    0.0021    0.0256    0.0326   -0.0133
  S   C   29    0.0060    0.0005    0.0104   -0.0283
  Px  C   29    0.1477   -0.2223   -0.1243    0.2051
  Py  C   29    0.1825   -0.0852   -0.2047    0.1559
  Pz  C   29   -0.0092    0.0121    0.0070   -0.0097
  S   C   30    0.0175    0.0052   -0.0003   -0.0224
  Px  C   30    0.2025    0.0204    0.2833    0.2160
  Py  C   30    0.2327    0.0498    0.0229    0.1224
  Pz  C   30    0.0135    0.0024    0.0088    0.0090


              NET ATOMIC CHARGES AND DIPOLE CONTRIBUTIONS

  ATOM NO.   TYPE          CHARGE      No. of ELECS.   s-Pop       p-Pop       
    1          C          -0.031148        4.0311     1.09332     2.93783
    2          C          -0.025616        4.0256     1.09441     2.93121
    3          C           0.017749        3.9823     1.06402     2.91823
    4          C           0.009336        3.9907     1.07364     2.91702
    5          C          -0.026888        4.0269     1.10350     2.92339
    6          C          -0.030894        4.0309     1.09075     2.94015
    7          C          -0.038751        4.0388     1.11468     2.92407
    8          C          -0.042698        4.0427     1.10490     2.93779
    9          C           0.009377        3.9906     1.07061     2.92001
   10          C           0.014336        3.9857     1.06267     2.92299
   11          C          -0.028342        4.0283     1.09486     2.93348
   12          H           0.025321        0.9747     0.97468
   13          C          -0.040462        4.0405     1.11096     2.92951
   14          H           0.016528        0.9835     0.98347
   15          H           0.029187        0.9708     0.97081
   16          H           0.023215        0.9768     0.97678
   17          H           0.023825        0.9762     0.97617
   18          H           0.030477        0.9695     0.96952
   19          H           0.030212        0.9698     0.96979
   20          H           0.029661        0.9703     0.97034
   21          C          -0.028269        4.0283     1.10088     2.92739
   22          C          -0.025868        4.0259     1.09522     2.93065
   23          C          -0.022623        4.0226     1.08657     2.93605
   24          C          -0.023949        4.0239     1.09371     2.93024
   25          H           0.021119        0.9789     0.97888
   26          H           0.026242        0.9738     0.97376
   27          H           0.022160        0.9778     0.97784
   28          H           0.014687        0.9853     0.98531
   29          C           0.010612        3.9894     1.07281     2.91658
   30          C           0.011461        3.9885     1.07322     2.91532
 DIPOLE           X         Y         Z       TOTAL
 POINT-CHG.    -0.105    -0.036    -0.034     0.116
 HYBRID         0.015     0.155    -0.192     0.247
 SUM           -0.090     0.118    -0.226     0.270


          ATOMIC ORBITAL ELECTRON POPULATIONS

     Atom    s        px        py        pz   
    1  C   1.09332   0.98425   0.96325   0.99033
    2  C   1.09441   0.97791   0.94656   1.00675
    3  C   1.06402   0.96944   0.96785   0.98094
    4  C   1.07364   0.96890   0.96797   0.98015
    5  C   1.10350   0.97745   0.94885   0.99709
    6  C   1.09075   0.95254   0.98809   0.99953
    7  C   1.11468   0.96345   0.94572   1.01490
    8  C   1.10490   0.96883   0.94878   1.02018
    9  C   1.07061   0.97415   0.96954   0.97632
   10  C   1.06267   0.96517   0.96973   0.98810
   11  C   1.09486   0.96387   0.95539   1.01422
   12  H   0.97468
   13  C   1.11096   0.96147   0.94942   1.01862
   14  H   0.98347
   15  H   0.97081
   16  H   0.97678
   17  H   0.97617
   18  H   0.96952
   19  H   0.96979
   20  H   0.97034
   21  C   1.10088   0.95356   0.96632   1.00751
   22  C   1.09522   0.94010   0.99305   0.99750
   23  C   1.08657   0.99377   0.95245   0.98983
   24  C   1.09371   0.97969   0.94555   1.00500
   25  H   0.97888
   26  H   0.97376
   27  H   0.97784
   28  H   0.98531
   29  C   1.07281   0.95382   0.97212   0.99063
   30  C   1.07322   0.96783   0.96705   0.98044

 **********************
 *                    *
 * JOB ENDED NORMALLY *
 *                    *
 **********************



 TOTAL JOB TIME:             1.68 SECONDS

 == MOPAC DONE ==


          MOPAC Job: "./tetraceneTraj/tetracene_1774.mop" ended normally on Feb 15, 2023, at 11:36.

rm: cannot remove ./tetraceneTraj/tetracene_1774.cim: No such file or directory
rm: cannot remove ./tetraceneTraj/tetracene_1774.end: No such file or directory
rm: cannot remove ./tetraceneTraj/tetracene_1774.log: No such file or directory
rm: cannot remove ./tetraceneTraj/tetracene_1774.temp: No such file or directory
rm: cannot remove ./tetraceneTraj/tetracene_1774.ple: No such file or directory
rm: cannot remove ./tetraceneTraj/tetracene_1774.sts: No such file or directory
