 *******************************************************************************
 ** Site#:    0         For non-commercial use only    Version 20.173L 64BITS **
 *******************************************************************************
 ** Cite this program as: MOPAC2016, Version: 20.173L, James J. P. Stewart,   **
 ** Stewart Computational Chemistry, web-site: HTTP://OpenMOPAC.net.          **
 *******************************************************************************
 **                                                                           **
 **                                MOPAC2016                                  **
 **                                                                           **
 *******************************************************************************

                              INDO CALCULATION RESULTS

 *******************************************************************************
 *  CALCULATION DONE:                                Wed Feb 15 11:27:58 2023  *
 *  INDO       - The INDO Hamiltonian to be used
 *
 *
 *
 *                 CHARGE ON SYSTEM = 0
 *
 *
 *
 *  C.I.=(N,M) - 3 DOUBLY FILLED LEVELS USED IN A C.I. INVOLVING 6 M.O.'S
 *  T=         - A TIME OF 172800.0 SECONDS REQUESTED
 *  DUMP=N     - RESTART FILE WRITTEN EVERY 7200.0 SECONDS REQUESTED
 *  RELSCF     - DEFAULT SCF CRITERION MULTIPLIED BY 0.0000
 *              (DEFAULT SCF CRITERION = 0.00010)
 *  ALLVEC     - PRINT ALL EIGENVECTORS
 **********
 *  WARNING: Specified print options may not behave as expected with INDO
 **********
 *******************************************************************************
INDO C.I.=(6,3) AllVEC CHARGE=0 RELSCF=0.000001


   ATOM   CHEMICAL          X               Y               Z
  NUMBER   SYMBOL      (ANGSTROMS)     (ANGSTROMS)     (ANGSTROMS)
 
     1       C         18.46046196  *  19.47898896  *  22.24482157  *
     2       C         19.84115875  *  19.43212964  *  22.31164394  *
     3       C         20.65978979  *  20.63874312  *  22.40505959  *
     4       C         19.95428853  *  21.96698779  *  22.42814228  *
     5       C         18.48945117  *  22.00492298  *  22.46500034  *
     6       C         17.78716117  *  20.76842427  *  22.39552245  *
     7       C         22.08492903  *  20.62858604  *  22.48590769  *
     8       C         20.71952219  *  23.16034925  *  22.40554652  *
     9       C         22.15382192  *  23.10620627  *  22.53110084  *
    10       C         22.88920212  *  21.83112167  *  22.53562075  *
    11       C         24.33884577  *  21.82374922  *  22.55013914  *
    12       H         24.83176331  *  20.84812812  *  22.52918288  *
    13       C         22.95596514  *  24.29263245  *  22.60024106  *
    14       H         22.65709472  *  19.69053772  *  22.57373630  *
    15       H         17.89868249  *  18.58310501  *  22.14185960  *
    16       H         20.40013939  *  18.50734657  *  22.15669702  *
    17       H         17.94038551  *  22.94182999  *  22.61053584  *
    18       H         16.68402283  *  20.84260387  *  22.43664230  *
    19       H         20.25633651  *  24.17083252  *  22.36462003  *
    20       H         22.48782527  *  25.29062947  *  22.60327802  *
    21       C         26.54217218  *  23.05567966  *  22.63795928  *
    22       C         27.17165857  *  24.28128634  *  22.46091928  *
    23       C         26.45396639  *  25.54859462  *  22.51288914  *
    24       C         25.09162964  *  25.59702734  *  22.69903351  *
    25       H         27.10685563  *  22.11712315  *  22.66985370  *
    26       H         28.27812666  *  24.28332601  *  22.37070174  *
    27       H         27.01511173  *  26.53065545  *  22.35728349  *
    28       H         24.53038166  *  26.54819968  *  22.55415092  *
    29       C         25.06408062  *  23.03544915  *  22.66495468  *
    30       C         24.33461077  *  24.31936106  *  22.71853266  *
 


          CARTESIAN COORDINATES 

    NO.       ATOM           X           Y           Z

     1         C         18.4605     19.4790     22.2448
     2         C         19.8412     19.4321     22.3116
     3         C         20.6598     20.6387     22.4051
     4         C         19.9543     21.9670     22.4281
     5         C         18.4895     22.0049     22.4650
     6         C         17.7872     20.7684     22.3955
     7         C         22.0849     20.6286     22.4859
     8         C         20.7195     23.1603     22.4055
     9         C         22.1538     23.1062     22.5311
    10         C         22.8892     21.8311     22.5356
    11         C         24.3388     21.8237     22.5501
    12         H         24.8318     20.8481     22.5292
    13         C         22.9560     24.2926     22.6002
    14         H         22.6571     19.6905     22.5737
    15         H         17.8987     18.5831     22.1419
    16         H         20.4001     18.5073     22.1567
    17         H         17.9404     22.9418     22.6105
    18         H         16.6840     20.8426     22.4366
    19         H         20.2563     24.1708     22.3646
    20         H         22.4878     25.2906     22.6033
    21         C         26.5422     23.0557     22.6380
    22         C         27.1717     24.2813     22.4609
    23         C         26.4540     25.5486     22.5129
    24         C         25.0916     25.5970     22.6990
    25         H         27.1069     22.1171     22.6699
    26         H         28.2781     24.2833     22.3707
    27         H         27.0151     26.5307     22.3573
    28         H         24.5304     26.5482     22.5542
    29         C         25.0641     23.0354     22.6650
    30         C         24.3346     24.3194     22.7185

           Empirical Formula: C18 H12  =    30 atoms



      MOLECULAR POINT GROUP   :   C1  


      RHF CALCULATION, NO. OF DOUBLY OCCUPIED LEVELS = 42

 WARNING: INDO only performs single-point calculations
  SCF CRITERION =    0.1000E-09

 Summary of symmetry occupancy in each shell:

 SHELL     
    1   42
    v   42
 TOTAL  84




    ROOT NO.    1           2           3           4           5           6

           -44.17689   -42.50031   -40.02748   -36.67608   -35.46448   -33.99593
  
  
  S  C   1   0.09861     0.23404    -0.26775     0.26596     0.05636    -0.11661
 PX  C   1   0.02720     0.05683    -0.04855     0.01887     0.04154    -0.08695
 PY  C   1   0.03309     0.07422    -0.07520     0.05527    -0.02225     0.05267
 PZ  C   1   0.00465     0.01071    -0.01146     0.00960    -0.00043     0.00164
  
  S  C   2   0.12691     0.26039    -0.22858     0.13806     0.15801    -0.28985
 PX  C   2  -0.00251    -0.02951     0.07118    -0.11063     0.03651    -0.04273
 PY  C   2   0.04830     0.08964    -0.05968     0.00325     0.01091    -0.00981
 PZ  C   2   0.00145     0.00166     0.00111    -0.00480    -0.00098     0.00415
  
  S  C   3   0.22697     0.32377    -0.07957    -0.16103     0.15704    -0.22299
 PX  C   3   0.00768    -0.05275     0.13189    -0.13356     0.07114    -0.06301
 PY  C   3   0.04790     0.03208     0.05925    -0.10724    -0.08154     0.13065
 PZ  C   3   0.00222    -0.00057     0.00722    -0.00945     0.00025     0.00354
  
  S  C   4   0.22832     0.32271    -0.07186    -0.18436    -0.16522     0.21817
 PX  C   4   0.04541     0.00023     0.11878    -0.15485     0.03382    -0.09304
 PY  C   4  -0.01821    -0.05989     0.07921    -0.06368    -0.10268     0.11782
 PZ  C   4   0.00019    -0.00125     0.00277    -0.00197    -0.00179     0.00303
  
  S  C   5   0.12159     0.24491    -0.20507     0.09503    -0.16906     0.31246
 PX  C   5   0.04017     0.06079    -0.01234    -0.05768    -0.03471     0.03347
 PY  C   5  -0.02872    -0.07320     0.08955    -0.08910    -0.01718     0.01052
 PZ  C   5  -0.00213    -0.00512     0.00561    -0.00455    -0.00047     0.00088
  
  S  C   6   0.09696     0.22843    -0.25742     0.24395    -0.06247     0.14388
 PX  C   6   0.04268     0.09315    -0.08892     0.05530    -0.00692     0.01016
 PY  C   6   0.00234     0.00047     0.01021    -0.03181    -0.04883     0.10365
 PZ  C   6  -0.00093    -0.00261     0.00372    -0.00503    -0.00305     0.00673
  
  S  C   7   0.21475     0.16926     0.13868    -0.22767     0.29017    -0.21912
 PX  C   7  -0.02059    -0.07205     0.04290     0.07281     0.02764     0.06896
 PY  C   7   0.07368     0.02962     0.08213    -0.06680     0.00508     0.03634
 PZ  C   7   0.00003    -0.00301     0.00329     0.00224     0.00189     0.00387
  
  S  C   8   0.21697     0.17020     0.14145    -0.24650    -0.28235     0.19626
 PX  C   8   0.05030    -0.01515     0.09094    -0.01010    -0.01198    -0.07466
 PY  C   8  -0.05906    -0.07849    -0.01093     0.10322    -0.01517    -0.03249
 PZ  C   8   0.00716     0.00341     0.00716    -0.00597    -0.00817     0.00264
  
  S  C   9   0.33115     0.04883     0.29931    -0.02511    -0.20013     0.01809
 PX  C   9   0.04259    -0.08411     0.03039     0.19223     0.06606    -0.05370
 PY  C   9  -0.03834    -0.05402    -0.03635     0.10406    -0.13569    -0.01033
 PZ  C   9  -0.00083    -0.00583    -0.00132     0.01394     0.00185    -0.00380
  
  S  C  10   0.32398     0.04342     0.29357    -0.01056     0.23030    -0.02198
 PX  C  10  -0.01529    -0.08868    -0.02112     0.18607     0.07097     0.06358
 PY  C  10   0.05990    -0.04031     0.04663     0.09950    -0.12175     0.04774
 PZ  C  10  -0.00092    -0.00431    -0.00121     0.00950    -0.00099     0.00245
  
  S  C  11   0.25113    -0.10451     0.14672     0.21237     0.32082     0.17163
 PX  C  11  -0.04697    -0.02740    -0.09138    -0.01084    -0.00845     0.07593
 PY  C  11   0.07969    -0.06167     0.01441     0.09774    -0.00954     0.04848
 PZ  C  11   0.00447    -0.00400     0.00103     0.00836     0.00400     0.00596
  
  S  H  12   0.07562    -0.02870     0.04320     0.05395     0.16225     0.07822
  
  S  C  13   0.27311    -0.11461     0.15645     0.22956    -0.31495    -0.14952
 PX  C  13   0.04512    -0.07318    -0.04046     0.08865     0.00906    -0.06976
 PY  C  13  -0.07995     0.00405    -0.08891    -0.05276    -0.01956    -0.05567
 PZ  C  13   0.00053    -0.00318    -0.00217     0.00695    -0.00164    -0.00616
  
  S  H  14   0.06683     0.04931     0.04220    -0.05880     0.14970    -0.10302
  
  S  H  15   0.02682     0.06751    -0.08568     0.10148     0.02604    -0.05700
  
  S  H  16   0.04030     0.07949    -0.06517     0.03542     0.08458    -0.15064
  
  S  H  17   0.03640     0.07103    -0.05617     0.02077    -0.08252     0.14924
  
  S  H  18   0.02485     0.06202    -0.07740     0.08715    -0.02784     0.06734
  
  S  H  19   0.06661     0.04804     0.04283    -0.06572    -0.14396     0.09489
  
  S  H  20   0.08546    -0.03758     0.04168     0.06400    -0.16778    -0.08550
  
  S  C  21   0.17209    -0.21248    -0.21923    -0.12484     0.20561     0.27347
 PX  C  21  -0.05480     0.05064     0.01420    -0.04986    -0.03686    -0.03200
 PY  C  21   0.04294    -0.06582    -0.09481    -0.09159    -0.01988    -0.01717
 PZ  C  21  -0.00441     0.00606     0.00794     0.00791    -0.00463    -0.00677
  
  S  C  22   0.14325    -0.20348    -0.27088    -0.25377     0.08312     0.11212
 PX  C  22  -0.06228     0.08168     0.09160     0.05564    -0.00616    -0.00177
 PY  C  22  -0.00633     0.00498    -0.00305    -0.01902    -0.06182    -0.09966
 PZ  C  22   0.00823    -0.01150    -0.01444    -0.01113     0.00442     0.00623
  
  S  C  23   0.14353    -0.20336    -0.26921    -0.24753    -0.07034    -0.13299
 PX  C  23  -0.03838     0.04725     0.04483     0.00963     0.05775     0.08652
 PY  C  23  -0.05128     0.06931     0.08310     0.06195    -0.02724    -0.04210
 PZ  C  23   0.00464    -0.00636    -0.00749    -0.00430    -0.00346    -0.00582
  
  S  C  24   0.17756    -0.21706    -0.21828    -0.11015    -0.20163    -0.27642
 PX  C  24   0.00708    -0.02986    -0.07634    -0.10969     0.04398     0.02218
 PY  C  24  -0.06975     0.07760     0.05985     0.00108     0.02089     0.01497
 PZ  C  24  -0.00905     0.01169     0.01353     0.01061     0.00925     0.01438
  
  S  H  25   0.05062    -0.06081    -0.06020    -0.03253     0.10080     0.13289
  
  S  H  26   0.03648    -0.05511    -0.08171    -0.09175     0.03594     0.05217
  
  S  H  27   0.03491    -0.05252    -0.07731    -0.08508    -0.02972    -0.05825
  
  S  H  28   0.05396    -0.06305    -0.05840    -0.02326    -0.10250    -0.13417
  
  S  C  29   0.30298    -0.25683    -0.06631     0.16033     0.19455     0.20888
 PX  C  29  -0.05310    -0.01071    -0.12695    -0.15754     0.04409     0.07345
 PY  C  29   0.03424    -0.05940    -0.08359    -0.05487    -0.11996    -0.10312
 PZ  C  29  -0.00735     0.00521    -0.00024    -0.00366    -0.00821    -0.00797
  
  S  C  30   0.31242    -0.26376    -0.06429     0.17623    -0.19160    -0.17761
 PX  C  30  -0.00479    -0.05199    -0.13869    -0.13553     0.08749     0.04755
 PY  C  30  -0.05854     0.01720    -0.06622    -0.09868    -0.10590    -0.13116
 PZ  C  30  -0.01524     0.01180     0.00110    -0.00837     0.00817     0.00677




    ROOT NO.    7           8           9          10          11          12

           -31.73919   -31.12011   -28.81122   -28.00966   -26.77793   -25.98585
  
  
  S  C   1  -0.18698    -0.26547     0.19690    -0.23140    -0.01891     0.19424
 PX  C   1  -0.09396     0.08902     0.08489     0.16740     0.04334     0.05288
 PY  C   1   0.07161    -0.02217    -0.09783     0.00558    -0.06959    -0.10356
 PZ  C   1   0.00251    -0.00540    -0.00575    -0.00092    -0.00645    -0.00768
  
  S  C   2  -0.26532     0.06939     0.14786     0.15849     0.11776     0.00140
 PX  C   2   0.04140     0.15451    -0.13197     0.10831     0.05337    -0.19984
 PY  C   2   0.02667     0.07964    -0.06991     0.08444    -0.08403    -0.08189
 PZ  C   2   0.01037     0.00778    -0.01544     0.00432    -0.00837    -0.01468
  
  S  C   3  -0.04799     0.27482    -0.11713     0.11652    -0.09843    -0.17074
 PX  C   3   0.05073    -0.03180    -0.11512    -0.16719     0.05037    -0.07627
 PY  C   3   0.08326    -0.00408     0.02603    -0.09851    -0.17271     0.12963
 PZ  C   3   0.00989    -0.00139    -0.01021    -0.01143    -0.00460    -0.00083
  
  S  C   4   0.09454     0.24075     0.11964     0.10815    -0.07355     0.21588
 PX  C   4  -0.11283    -0.00245     0.06525    -0.15487    -0.11508    -0.03787
 PY  C   4  -0.00771    -0.03907     0.12854    -0.07853     0.15730     0.10520
 PZ  C   4   0.00346    -0.00184    -0.00426    -0.00108     0.00246    -0.00209
  
  S  C   5   0.29142     0.02835    -0.17128     0.12653     0.11319    -0.04101
 PX  C   5  -0.01877     0.13655     0.13063     0.12156    -0.01497     0.21010
 PY  C   5  -0.02101     0.06620     0.08142     0.02814     0.09856     0.09999
 PZ  C   5   0.00166     0.00222    -0.00191     0.00155     0.00699    -0.00199
  
  S  C   6   0.15522    -0.26921    -0.19777    -0.23115    -0.04675    -0.20658
 PX  C   6  -0.00034     0.02791     0.02642     0.09270    -0.02857     0.07124
 PY  C   6   0.13791     0.07840    -0.14134     0.12833     0.05735    -0.12814
 PZ  C   6   0.01017     0.00828    -0.01188     0.01173     0.00560    -0.01283
  
  S  C   7   0.16565    -0.00403    -0.23331    -0.15564     0.15167    -0.02487
 PX  C   7   0.10522    -0.16283     0.04449    -0.02405     0.13031     0.18501
 PY  C   7   0.04777    -0.09329     0.02515    -0.08682    -0.14428     0.11148
 PZ  C   7   0.00800    -0.00916    -0.00089    -0.00390     0.00639     0.01065
  
  S  C   8  -0.17019    -0.00428     0.25577    -0.11090     0.16796    -0.00026
 PX  C   8  -0.12823    -0.14224    -0.05158    -0.07070    -0.06728    -0.20894
 PY  C   8  -0.06495    -0.07076    -0.03327     0.03918     0.16887    -0.13098
 PZ  C   8  -0.00779    -0.00593     0.00091    -0.00411     0.00026    -0.00813
  
  S  C   9  -0.23338    -0.24200    -0.00306     0.02018    -0.09188    -0.19312
 PX  C   9   0.07021    -0.02183    -0.12179     0.17565    -0.11129     0.06618
 PY  C   9  -0.12694     0.03465    -0.04736     0.09196     0.20929    -0.12786
 PZ  C   9   0.00422     0.00355    -0.01153     0.01319    -0.00237     0.00625
  
  S  C  10   0.19518    -0.26424    -0.01612     0.00363    -0.06130     0.17721
 PX  C  10   0.07290     0.01575     0.10382     0.17942     0.13303     0.05482
 PY  C  10  -0.13189    -0.02072     0.04858     0.12204    -0.22093    -0.09805
 PZ  C  10  -0.00026     0.00277     0.00163     0.00846    -0.00044    -0.00040
  
  S  C  11   0.16883    -0.01520     0.24255     0.12732     0.19479    -0.01254
 PX  C  11  -0.09999     0.15339     0.06575    -0.08580     0.05194    -0.19010
 PY  C  11  -0.05884     0.08188     0.03358     0.04348    -0.19230    -0.09263
 PZ  C  11  -0.00148     0.00883     0.00689     0.00196    -0.00467    -0.00937
  
  S  H  12   0.08676    -0.00890     0.11511     0.01638     0.22539    -0.00837
  
  S  C  13  -0.15835     0.01445    -0.24196     0.10081     0.17723     0.00605
 PX  C  13   0.12586     0.14722    -0.05292    -0.03210    -0.10300     0.21461
 PY  C  13   0.06626     0.09050    -0.03029    -0.11360     0.17795     0.10573
 PZ  C  13   0.00744     0.01257    -0.00927    -0.00256    -0.00081     0.01959
  
  S  H  14   0.08890    -0.00447    -0.10822    -0.03990     0.20162    -0.01138
  
  S  H  15  -0.09988    -0.14901     0.12280    -0.17305     0.01179     0.13837
  
  S  H  16  -0.12923     0.03970     0.06622     0.06836     0.12574    -0.01929
  
  S  H  17   0.13683     0.00773    -0.08074     0.04257     0.11758    -0.03373
  
  S  H  18   0.08074    -0.14341    -0.11878    -0.16315    -0.00411    -0.15345
  
  S  H  19  -0.08470    -0.00383     0.11497    -0.01658     0.20242    -0.02039
  
  S  H  20  -0.07018     0.01746    -0.11557    -0.00456     0.22364     0.00454
  
  S  C  21  -0.27333     0.06567    -0.16152    -0.15440     0.13075    -0.00134
 PX  C  21  -0.03961    -0.12565    -0.14859     0.11919     0.06700     0.17835
 PY  C  21  -0.02933    -0.07194    -0.08911     0.04233    -0.09761     0.11338
 PZ  C  21   0.01081     0.00859     0.01459    -0.00893    -0.00377    -0.01446
  
  S  C  22  -0.18500    -0.23219    -0.22789     0.22981     0.00490     0.19943
 PX  C  22  -0.01089    -0.02242    -0.04649     0.08595     0.05980     0.07096
 PY  C  22   0.12445    -0.09241     0.12965     0.15306    -0.07528    -0.08159
 PZ  C  22  -0.00864    -0.00001    -0.00785    -0.01134    -0.00266     0.00298
  
  S  C  23   0.15398    -0.27072     0.18448     0.25884    -0.03494    -0.16293
 PX  C  23  -0.11221    -0.06342    -0.11774     0.15646    -0.02078     0.08462
 PY  C  23   0.06946     0.01380     0.09703     0.00825     0.06670    -0.10638
 PZ  C  23   0.00818     0.00548     0.00946    -0.01873    -0.00179    -0.00641
  
  S  C  24   0.27317     0.00603     0.17988    -0.13028     0.11502    -0.05225
 PX  C  24   0.02870    -0.14001     0.13297     0.12211    -0.08943    -0.17324
 PY  C  24   0.00927    -0.07809     0.06355     0.09465     0.08479    -0.10105
 PZ  C  24  -0.01656     0.01157    -0.01824    -0.00854    -0.00562     0.01679
  
  S  H  25  -0.12928     0.03059    -0.07731    -0.06306     0.14234    -0.00464
  
  S  H  26  -0.09486    -0.12492    -0.13841     0.16403     0.03781     0.14332
  
  S  H  27   0.07454    -0.13902     0.10264     0.17490     0.01075    -0.10982
  
  S  H  28   0.12730     0.00463     0.07857    -0.05302     0.13556    -0.02685
  
  S  C  29  -0.05072     0.24821     0.14262    -0.11268    -0.12138    -0.17272
 PX  C  29  -0.10411     0.01347    -0.04250    -0.16719     0.11311    -0.07388
 PY  C  29  -0.00533     0.03139    -0.11886    -0.08690    -0.17390     0.11474
 PZ  C  29   0.00174     0.00134    -0.00530    -0.00694    -0.00609     0.00491
  
  S  C  30   0.08372     0.24224    -0.10216    -0.13745    -0.09345     0.18271
 PX  C  30   0.05401     0.01597     0.14490    -0.13681    -0.10514    -0.08336
 PY  C  30   0.08319    -0.01861    -0.01837    -0.10623     0.20283     0.07857
 PZ  C  30  -0.00167    -0.00351     0.00373    -0.00467     0.00257    -0.00219




    ROOT NO.   13          14          15          16          17          18

           -25.08974   -23.90158   -22.76123   -21.54657   -20.59674   -19.31607
  
  
  S  C   1  -0.00864    -0.10948    -0.02505     0.16426    -0.03165    -0.02951
 PX  C   1   0.03564     0.23605     0.02667    -0.02660     0.19989     0.21332
 PY  C   1  -0.15043    -0.01433     0.21249    -0.09427    -0.14731     0.19094
 PZ  C   1  -0.01474     0.00072     0.02294    -0.00916    -0.01270     0.02759
  
  S  C   2   0.16540     0.18462    -0.08403    -0.14114     0.10541     0.06130
 PX  C   2   0.08201    -0.04406    -0.05640    -0.16989    -0.12795    -0.15100
 PY  C   2  -0.18450    -0.01596     0.21112    -0.03674    -0.14782     0.05747
 PZ  C   2  -0.01883    -0.01031     0.02352    -0.00046    -0.02628     0.00492
  
  S  C   3  -0.12739    -0.11684     0.01107    -0.08214    -0.05458    -0.15818
 PX  C   3   0.14817    -0.15590    -0.17324     0.09901    -0.01084    -0.04117
 PY  C   3  -0.20000    -0.07394    -0.00188     0.10509     0.14967    -0.07038
 PZ  C   3  -0.00368    -0.01211    -0.00162     0.02162    -0.00116    -0.00003
  
  S  C   4  -0.11672    -0.07876    -0.00640     0.09314    -0.04059    -0.14505
 PX  C   4  -0.08669    -0.15725    -0.07341    -0.19173     0.09838    -0.03850
 PY  C   4   0.24084    -0.06437    -0.14255    -0.02386    -0.09496     0.03664
 PZ  C   4   0.00597     0.00471    -0.00675     0.01195     0.00788    -0.00435
  
  S  C   5   0.17566     0.17807    -0.11224     0.11517     0.12394    -0.00079
 PX  C   5  -0.09426    -0.00394     0.11680     0.18737    -0.17711    -0.04349
 PY  C   5   0.16891    -0.01443    -0.17565     0.08526    -0.00759    -0.17128
 PZ  C   5   0.01580     0.00506    -0.02005     0.00416     0.01556    -0.01571
  
  S  C   6  -0.02654    -0.14115     0.01729    -0.17128    -0.06735     0.03022
 PX  C   6  -0.10225     0.12605     0.17014     0.13888     0.00500     0.21015
 PY  C   6   0.10485     0.17968    -0.08313    -0.07627     0.23213     0.06511
 PZ  C   6   0.01133     0.01618    -0.01132    -0.01090     0.02497     0.00213
  
  S  C   7   0.13780    -0.11114     0.04111     0.23019    -0.07249     0.12818
 PX  C   7   0.03560     0.14811     0.17917     0.08013     0.01021     0.18134
 PY  C   7  -0.11587     0.10597    -0.04386    -0.01848     0.22256     0.02613
 PZ  C   7   0.00178     0.00564     0.01256     0.01679    -0.00378     0.01935
  
  S  C   8   0.13741    -0.11348     0.07222    -0.19169    -0.10244     0.15931
 PX  C   8  -0.08918     0.12186     0.08687    -0.06809     0.18638     0.07629
 PY  C   8   0.08569     0.04508     0.17626    -0.00938    -0.12346     0.11819
 PZ  C   8  -0.00039     0.00605    -0.00047     0.00437     0.01393    -0.00197
  
  S  C   9  -0.01024     0.21379     0.00259     0.00278     0.01782    -0.02426
 PX  C   9  -0.00341     0.07329    -0.11952     0.17032    -0.14416    -0.17371
 PY  C   9   0.01654    -0.09853     0.19339     0.11959    -0.09552    -0.10369
 PZ  C   9   0.00015    -0.00222    -0.00828     0.02407    -0.00900    -0.01393
  
  S  C  10  -0.00072     0.23842    -0.00595    -0.02560     0.00257     0.01227
 PX  C  10   0.00705    -0.06147     0.11342    -0.15772    -0.17801    -0.16457
 PY  C  10  -0.01900     0.08593    -0.19065    -0.09312    -0.07945    -0.10663
 PZ  C  10   0.00229    -0.00426    -0.00181     0.00477    -0.01108     0.00286
  
  S  C  11  -0.12479    -0.12034     0.06706    -0.20372     0.06983    -0.14905
 PX  C  11  -0.08438    -0.15212    -0.06648     0.07195     0.19899     0.07606
 PY  C  11   0.05950    -0.06068    -0.17645     0.05563    -0.10358     0.14702
 PZ  C  11   0.00084    -0.01273    -0.01009     0.00631    -0.00133     0.01995
  
  S  H  12  -0.12094    -0.07262     0.11845    -0.10845     0.15748    -0.14453
  
  S  C  13  -0.10709    -0.10149     0.04246     0.20517     0.08391    -0.13846
 PX  C  13   0.02149    -0.11868    -0.16723    -0.09525     0.00195     0.17566
 PY  C  13  -0.10362    -0.09575     0.03752    -0.04093     0.21976     0.02863
 PZ  C  13  -0.00262    -0.01525    -0.01285    -0.00036     0.00921     0.01599
  
  S  H  14   0.14401    -0.06765     0.10916     0.14918    -0.16082     0.11405
  
  S  H  15   0.06330    -0.13100    -0.14337     0.15392    -0.00371    -0.22390
  
  S  H  16   0.21587     0.08842    -0.18135    -0.10491     0.09525    -0.05535
  
  S  H  17   0.21452     0.08532    -0.19576     0.04287     0.12106    -0.08954
  
  S  H  18   0.05448    -0.14515    -0.10794    -0.18927    -0.02740    -0.13872
  
  S  H  19   0.14210    -0.06628     0.11764    -0.07765    -0.17879     0.13277
  
  S  H  20  -0.12414    -0.07187     0.08733     0.09821     0.17324    -0.10380
  
  S  C  21  -0.15846     0.19218    -0.11281     0.11453    -0.10119    -0.01562
 PX  C  21  -0.09748     0.02617    -0.13336    -0.15995    -0.20550    -0.00708
 PY  C  21   0.15408     0.02145     0.16502    -0.10652    -0.03131    -0.16957
 PZ  C  21   0.00379     0.00060     0.00269     0.01814     0.00933     0.01416
  
  S  C  22   0.01758    -0.13245     0.01179    -0.16021     0.03642    -0.00966
 PX  C  22  -0.10087    -0.11332    -0.16815    -0.11238    -0.03298     0.23494
 PY  C  22   0.09375    -0.21594     0.08787     0.05761     0.24754     0.05887
 PZ  C  22   0.00672     0.02481     0.01427     0.00448    -0.01618    -0.03350
  
  S  C  23   0.00407    -0.14083    -0.01965     0.17019     0.06187     0.01419
 PX  C  23   0.03651    -0.23711    -0.00113     0.01365     0.20193     0.17020
 PY  C  23  -0.14036     0.00761    -0.20744     0.11993    -0.13155     0.19041
 PZ  C  23   0.00352     0.03316     0.01185    -0.00735    -0.02627    -0.03821
  
  S  C  24  -0.15697     0.18931    -0.10189    -0.12271    -0.12521    -0.02999
 PX  C  24   0.07408     0.01866     0.04751     0.17721    -0.09826    -0.13466
 PY  C  24  -0.16376     0.00254    -0.20718     0.08643    -0.14326     0.08330
 PZ  C  24   0.01319    -0.00413     0.01559    -0.01460     0.01499     0.00363
  
  S  H  25  -0.19800     0.09516    -0.19476     0.06199    -0.10519     0.09101
  
  S  H  26  -0.05359    -0.14216    -0.10619    -0.16088    -0.00287     0.17433
  
  S  H  27  -0.06148    -0.14411    -0.12941     0.16317     0.02505     0.19814
  
  S  H  28  -0.19529     0.09042    -0.18389    -0.06751    -0.11170     0.08155
  
  S  C  29   0.10363    -0.10077     0.00073     0.10216     0.05210     0.15532
 PX  C  29  -0.07533     0.15145     0.07439     0.15817     0.13612    -0.08137
 PY  C  29   0.22278     0.09097     0.13831     0.01648    -0.09991     0.02749
 PZ  C  29   0.01021     0.00399     0.00589     0.00615    -0.00358     0.01918
  
  S  C  30   0.11943    -0.08118     0.02052    -0.10255     0.02795     0.14847
 PX  C  30   0.14602     0.14398     0.16237    -0.09243    -0.03221    -0.02845
 PY  C  30  -0.17152     0.09227     0.01184    -0.13764     0.14125    -0.09515
 PZ  C  30   0.00016     0.00438     0.00471    -0.00444     0.00452     0.00936




    ROOT NO.   19          20          21          22          23          24

           -18.43309   -17.34071   -16.81255   -16.80459   -15.87241   -15.48435
  
  
  S  C   1   0.14646    -0.00708    -0.00890     0.10634    -0.04729     0.04310
 PX  C   1  -0.04304     0.17333     0.06374    -0.00494    -0.22782     0.06638
 PY  C   1  -0.12355    -0.20711    -0.01617    -0.01963    -0.19921     0.13843
 PZ  C   1  -0.01223    -0.01961    -0.00007     0.00612    -0.03587     0.04758
  
  S  C   2  -0.15372    -0.01543     0.02476    -0.05325    -0.01487     0.04928
 PX  C   2  -0.12504    -0.18975    -0.04927    -0.07218     0.23634    -0.05597
 PY  C   2   0.05044    -0.10207     0.03357     0.27384     0.02818     0.23685
 PZ  C   2   0.01486    -0.02057    -0.00295     0.03727    -0.00112     0.05167
  
  S  C   3   0.06066     0.04164     0.06652     0.20889     0.08517     0.00678
 PX  C   3   0.15668    -0.03687    -0.01411     0.03717    -0.23615    -0.14564
 PY  C   3   0.04927     0.27719     0.03607    -0.09228     0.02188    -0.12754
 PZ  C   3   0.03050     0.00675    -0.01019     0.00388    -0.00888     0.01556
  
  S  C   4  -0.08400     0.04638    -0.03873    -0.21442     0.07783    -0.02285
 PX  C   4  -0.12206     0.21687     0.06203     0.04791    -0.11547     0.13158
 PY  C   4  -0.12280    -0.18447    -0.05207    -0.08499    -0.21661     0.11064
 PZ  C   4   0.02361    -0.00413    -0.01420     0.00512     0.01513     0.03555
  
  S  C   5   0.16967    -0.00542    -0.03504     0.06314     0.01008    -0.01231
 PX  C   5  -0.00545    -0.20299    -0.06931    -0.18448     0.13535    -0.11436
 PY  C   5   0.07614    -0.09812     0.03531     0.23390     0.08759     0.31645
 PZ  C   5   0.02073     0.00689     0.00214     0.03898     0.01490     0.06359
  
  S  C   6  -0.15970    -0.02868     0.00084    -0.11405    -0.05577    -0.04547
 PX  C   6   0.18408    -0.05646    -0.06317     0.05577    -0.19925    -0.08332
 PY  C   6   0.01653     0.25756     0.02427    -0.06275    -0.02502    -0.19632
 PZ  C   6  -0.00109     0.02973     0.00529     0.00207     0.00324     0.01533
  
  S  C   7   0.10340     0.02370    -0.00425    -0.05602    -0.09113    -0.03540
 PX  C   7  -0.15008     0.04734    -0.01668    -0.17856     0.16135     0.11978
 PY  C   7  -0.09697     0.01195     0.19396     0.17437     0.06693    -0.09248
 PZ  C   7   0.00273     0.00467    -0.01314    -0.01983     0.01071     0.02754
  
  S  C   8  -0.07015     0.03174     0.01557     0.06282    -0.06975    -0.01122
 PX  C   8   0.18356     0.10515    -0.13528    -0.04974     0.13869     0.07157
 PY  C   8   0.10436    -0.01464     0.13806     0.26023     0.12438    -0.22889
 PZ  C   8   0.01719     0.00210    -0.02602    -0.01525     0.01711     0.04229
  
  S  C   9   0.12832    -0.09295    -0.18677    -0.08587     0.06268     0.08686
 PX  C   9  -0.06656    -0.14423     0.04008    -0.01299    -0.06875    -0.05096
 PY  C   9   0.07541     0.23066    -0.01933    -0.07344     0.09193     0.01086
 PZ  C   9  -0.00520    -0.00425    -0.01320    -0.01103     0.00698     0.02240
  
  S  C  10  -0.14194    -0.13240     0.15229     0.09884     0.08938    -0.07272
 PX  C  10  -0.03687     0.14731     0.05379     0.05253     0.05865    -0.03447
 PY  C  10   0.06178    -0.20988    -0.11190    -0.00337    -0.11196     0.00865
 PZ  C  10   0.00400     0.00222    -0.01299    -0.00887     0.01041     0.01445
  
  S  C  11   0.08837     0.04080    -0.03213     0.02469    -0.08311    -0.00962
 PX  C  11   0.16096    -0.07931    -0.14979    -0.09654    -0.14129     0.05467
 PY  C  11   0.08790    -0.07933     0.25048    -0.05127    -0.09127    -0.21452
 PZ  C  11   0.01059     0.00156    -0.00211    -0.00673     0.01443    -0.01077
  
  S  H  12   0.03946     0.05633    -0.27537     0.00985    -0.03355     0.18314
  
  S  C  13  -0.11338     0.04392     0.05245    -0.03674    -0.08378     0.01803
 PX  C  13  -0.13140    -0.00494    -0.13826     0.10039    -0.13883     0.08259
 PY  C  13  -0.10172    -0.07336     0.23301     0.05482    -0.03535    -0.08137
 PZ  C  13  -0.01839     0.00123    -0.02345     0.00902     0.00562     0.01542
  
  S  H  14   0.05482     0.03148    -0.16236    -0.23975    -0.02845     0.11141
  
  S  H  15   0.17810     0.06458    -0.02228     0.07028     0.22750    -0.11489
  
  S  H  16  -0.16040    -0.01526    -0.03898    -0.26680     0.06892    -0.18112
  
  S  H  17   0.14347     0.01032     0.04129     0.29016     0.01384     0.28400
  
  S  H  18  -0.22506     0.04488     0.05610    -0.10319     0.14224     0.04493
  
  S  H  19  -0.02145    -0.02771     0.17583     0.25697     0.00530    -0.21254
  
  S  H  20  -0.07620    -0.03643     0.27316    -0.01336    -0.01851    -0.09065
  
  S  C  21  -0.16721     0.01255    -0.01949     0.07079     0.00638     0.01189
 PX  C  21   0.03317     0.21181    -0.15729     0.09906    -0.13056    -0.11305
 PY  C  21   0.10007     0.07580     0.26086    -0.13840    -0.14484     0.20861
 PZ  C  21  -0.02160    -0.00748    -0.03573     0.02136     0.04672    -0.02840
  
  S  C  22   0.15682    -0.04253     0.08271    -0.08873    -0.05029     0.02529
 PX  C  22   0.18720     0.03216    -0.03929    -0.06006     0.20935    -0.04319
 PY  C  22  -0.01957    -0.23292    -0.10234     0.03304     0.08294    -0.12843
 PZ  C  22  -0.02147     0.02024    -0.00969     0.01533    -0.02387    -0.00898
  
  S  C  23  -0.16942     0.01877    -0.07706     0.09121    -0.04333    -0.03817
 PX  C  23  -0.06171    -0.16718     0.01331     0.03012     0.19542     0.08889
 PY  C  23  -0.10872     0.18766     0.01236     0.04285     0.15420     0.12663
 PZ  C  23   0.01414     0.02466    -0.01991    -0.00049    -0.03391    -0.03817
  
  S  C  24   0.16992    -0.03618     0.00917    -0.06853     0.00007    -0.03845
 PX  C  24  -0.12788     0.20839    -0.06159     0.05077    -0.20716    -0.08576
 PY  C  24   0.04079     0.07004     0.27871    -0.15568    -0.02263     0.19075
 PZ  C  24   0.00750    -0.01094    -0.03446     0.01175     0.03433    -0.02108
  
  S  H  25  -0.14018     0.04309    -0.27519     0.17991     0.05106    -0.19847
  
  S  H  26   0.22783     0.00265     0.00662    -0.09517     0.15926    -0.02606
  
  S  H  27  -0.18457     0.07062    -0.01939     0.08873     0.18385     0.12279
  
  S  H  28   0.16035    -0.05750     0.24679    -0.17037     0.06790     0.16140
  
  S  C  29   0.07039    -0.00991     0.18510    -0.09825     0.08806     0.01821
 PX  C  29  -0.14718    -0.19737     0.04860    -0.01595     0.10189     0.11254
 PY  C  29  -0.09808     0.19351    -0.05048     0.04222     0.19595     0.13293
 PZ  C  29  -0.01148     0.01727    -0.03138     0.01214     0.06292    -0.00260
  
  S  C  30  -0.02890     0.07106    -0.20069     0.09571     0.08851     0.01641
 PX  C  30   0.16449     0.01046     0.00452    -0.02889     0.21139    -0.08145
 PY  C  30   0.04466    -0.25360    -0.12056     0.05052    -0.01772    -0.11355
 PZ  C  30   0.00608    -0.00024    -0.02652     0.00608     0.05037    -0.00755




    ROOT NO.   25          26          27          28          29          30

           -15.05396   -14.83751   -14.65252   -14.37419   -13.85227   -13.33543
  
  
  S  C   1   0.00242    -0.01493    -0.03561    -0.00437     0.04731    -0.01383
 PX  C   1  -0.19825    -0.10555     0.17722    -0.00747     0.11560     0.09210
 PY  C   1  -0.02021     0.21990     0.00210    -0.04427     0.15823     0.00355
 PZ  C   1  -0.05438     0.03316     0.00976     0.10818    -0.02271     0.24365
  
  S  C   2  -0.05328     0.06295     0.04520    -0.00921    -0.02152     0.01972
 PX  C   2   0.17373     0.13608    -0.14648    -0.00821    -0.14415    -0.10629
 PY  C   2  -0.13165    -0.06703    -0.03593    -0.06220    -0.11117    -0.09510
 PZ  C   2  -0.05590     0.00670    -0.01278     0.14549    -0.06675     0.24380
  
  S  C   3   0.00857    -0.05007     0.02510     0.00892     0.00302    -0.01214
 PX  C   3   0.16220     0.05980     0.04219     0.06308     0.27772     0.09842
 PY  C   3  -0.03186    -0.09593     0.09007     0.00384     0.05092     0.03637
 PZ  C   3  -0.05888     0.01690    -0.00574     0.25191    -0.06918     0.29735
  
  S  C   4  -0.06411    -0.02472     0.01620    -0.01272     0.01159     0.02542
 PX  C   4  -0.14395    -0.12282    -0.02653    -0.00850     0.12648    -0.07439
 PY  C   4  -0.01216     0.08510    -0.05481     0.00048     0.17069    -0.00951
 PZ  C   4  -0.05810     0.04506    -0.02156     0.24516    -0.08711     0.28851
  
  S  C   5   0.08060     0.03117    -0.08240     0.00056    -0.00982    -0.01806
 PX  C   5   0.07215     0.12586     0.05957     0.00736    -0.11054     0.10783
 PY  C   5  -0.19279     0.13424     0.01571    -0.11245    -0.03239    -0.01010
 PZ  C   5  -0.06590     0.02543    -0.01218     0.13061    -0.06496     0.23145
  
  S  C   6   0.01720     0.02805     0.03069     0.01770     0.05240     0.01852
 PX  C   6   0.22391     0.04501    -0.18246     0.05691     0.14533    -0.07133
 PY  C   6   0.05741    -0.23895     0.01494     0.05639    -0.01243    -0.04594
 PZ  C   6  -0.04896    -0.01286     0.01036     0.11086    -0.05583     0.22640
  
  S  C   7  -0.03807    -0.00672     0.05153    -0.01745    -0.00190     0.01472
 PX  C   7  -0.17099    -0.02944    -0.01976    -0.10327    -0.26314    -0.11081
 PY  C   7   0.10331     0.26680     0.21222    -0.01091    -0.06532    -0.01810
 PZ  C   7  -0.08070     0.01268    -0.00839     0.23336    -0.08102     0.13537
  
  S  C   8   0.03781    -0.06896    -0.03981     0.01679    -0.02105    -0.03305
 PX  C   8   0.05645     0.04824    -0.27680    -0.04224    -0.14339    -0.00175
 PY  C   8   0.11732    -0.05127     0.20684     0.05386    -0.16656     0.03888
 PZ  C   8  -0.05908     0.05280    -0.03585     0.23850    -0.05581     0.14463
  
  S  C   9   0.00992    -0.02815    -0.00587    -0.00248    -0.00938     0.01581
 PX  C   9  -0.05194    -0.06828     0.31219    -0.00892     0.14834     0.01139
 PY  C   9  -0.07052    -0.01609     0.12702    -0.03824     0.12929     0.00712
 PZ  C   9  -0.08255     0.05324     0.02872     0.32563    -0.01960     0.00210
  
  S  C  10  -0.00853     0.02307    -0.01679     0.00978     0.00587    -0.00184
 PX  C  10  -0.03747    -0.17652    -0.23391     0.03022     0.24112     0.04656
 PY  C  10   0.02872    -0.14422    -0.07980     0.04690     0.07981     0.04290
 PZ  C  10  -0.08634     0.03552    -0.00493     0.31753    -0.03677     0.00116
  
  S  C  11   0.05033     0.01868    -0.05267     0.01710     0.01667     0.03063
 PX  C  11   0.04364     0.14871     0.21551    -0.03667    -0.23948    -0.03077
 PY  C  11  -0.23064    -0.04722    -0.21012    -0.05723    -0.13441     0.01218
 PZ  C  11  -0.08242     0.04766    -0.00752     0.24624    -0.00635    -0.13635
  
  S  H  12   0.21672     0.09580     0.22784     0.03165     0.01416    -0.00701
  
  S  C  13  -0.03002     0.05714     0.04593    -0.02127     0.00967    -0.02718
 PX  C  13   0.17515    -0.13490     0.01410     0.01954    -0.27398    -0.06803
 PY  C  13  -0.02064     0.15910    -0.31119    -0.00932    -0.04355     0.01762
 PZ  C  13  -0.04713     0.04740     0.00047     0.27426    -0.01019    -0.14801
  
  S  H  14  -0.16787    -0.21341    -0.14356    -0.02861    -0.07637    -0.02167
  
  S  H  15   0.11512    -0.12773    -0.10700     0.02525    -0.15725    -0.08066
  
  S  H  16   0.15613     0.13966    -0.02176     0.02024     0.01728     0.00339
  
  S  H  17  -0.14352     0.06431    -0.05129    -0.07401     0.00553    -0.04019
  
  S  H  18  -0.19466    -0.04018     0.18500    -0.03792    -0.11514     0.08355
  
  S  H  19   0.08745    -0.08469     0.24924     0.05770    -0.08739     0.01112
  
  S  H  20  -0.09587     0.19312    -0.22670    -0.01959     0.08242     0.02900
  
  S  C  21   0.03996    -0.09223    -0.04652     0.03517     0.02663    -0.00177
 PX  C  21  -0.02909     0.09877    -0.11738    -0.00890    -0.10938     0.02078
 PY  C  21   0.23813     0.03733    -0.03925     0.09199    -0.09301    -0.00796
 PZ  C  21  -0.07195     0.02483     0.00523     0.15654     0.07488    -0.22704
  
  S  C  22   0.00190    -0.00895     0.03692     0.00521    -0.05655    -0.02262
 PX  C  22  -0.13823     0.22465     0.11401    -0.07686     0.13785    -0.01079
 PY  C  22  -0.18719    -0.16592     0.07323    -0.01656     0.05419    -0.07222
 PZ  C  22  -0.02143     0.02116    -0.02073     0.14014     0.01939    -0.21500
  
  S  C  23   0.00055    -0.00793    -0.05230     0.00154    -0.04366    -0.00293
 PX  C  23   0.11458    -0.24783    -0.05039     0.09654     0.14035     0.02262
 PY  C  23   0.17172     0.15410    -0.07156     0.01221     0.10797     0.09603
 PZ  C  23  -0.07420     0.07587     0.01492     0.11663     0.00830    -0.23256
  
  S  C  24  -0.08485    -0.01125     0.06611     0.00385     0.02164    -0.03160
 PX  C  24  -0.08496     0.26109     0.00603    -0.05617    -0.15790    -0.07945
 PY  C  24   0.13033    -0.07549     0.06731     0.06672    -0.07059    -0.12680
 PZ  C  24  -0.05664     0.03887     0.00236     0.16503     0.06539    -0.21196
  
  S  H  25  -0.17131    -0.02802    -0.04043    -0.05299     0.04085     0.00994
  
  S  H  26  -0.12300     0.19838     0.12579    -0.08164     0.10343    -0.00196
  
  S  H  27   0.19632    -0.00480    -0.10910     0.03999     0.13556     0.12381
  
  S  H  28   0.09773    -0.18232     0.07359     0.06167     0.02796    -0.05543
  
  S  C  29  -0.04461     0.07329    -0.01420    -0.01691     0.00653    -0.01977
 PX  C  29   0.07040    -0.14847     0.10522     0.03583     0.12262    -0.01611
 PY  C  29   0.13311     0.07360     0.04937    -0.00592     0.19730     0.03228
 PZ  C  29  -0.07327     0.06554     0.00940     0.27054     0.07951    -0.26457
  
  S  C  30   0.06221     0.02482     0.01253     0.00937    -0.00043     0.01529
 PX  C  30  -0.11760     0.11549    -0.04034    -0.05183     0.26801     0.12297
 PY  C  30  -0.08238    -0.13476    -0.02694    -0.00508     0.02219     0.07563
 PZ  C  30  -0.07547     0.06587     0.00326     0.28231     0.07345    -0.25854




    ROOT NO.   31          32          33          34          35          36

           -13.21182   -12.81853   -12.30326   -11.77475   -11.69699   -11.46857
  
  
  S  C   1   0.00080     0.01091     0.00430    -0.00740    -0.00466    -0.01359
 PX  C   1   0.10116    -0.18780    -0.11456     0.04064    -0.04375    -0.12682
 PY  C   1  -0.22111    -0.08355     0.17535    -0.03524     0.05064    -0.07090
 PZ  C   1  -0.04978     0.06211    -0.00995     0.25001     0.14569     0.15560
  
  S  C   2  -0.01440    -0.01342    -0.03242     0.01039    -0.02617     0.03231
 PX  C   2  -0.08341     0.17903     0.07628    -0.05509     0.00998     0.13781
 PY  C   2   0.20465     0.08070    -0.22177    -0.02776    -0.13748     0.08969
 PZ  C   2  -0.00033     0.11140    -0.05116     0.18731     0.09854     0.15243
  
  S  C   3   0.01546     0.02765    -0.00046     0.00067    -0.01104    -0.01151
 PX  C   3  -0.03546    -0.10916    -0.10940     0.09658    -0.09499    -0.14410
 PY  C   3  -0.13415    -0.11444     0.28034    -0.02891     0.19690    -0.11482
 PZ  C   3  -0.03248     0.10381     0.00102     0.04882     0.05390     0.03187
  
  S  C   4  -0.00193    -0.03548     0.02022    -0.00421     0.01477     0.00854
 PX  C   4  -0.03710     0.20739     0.19239    -0.11811     0.09049     0.17054
 PY  C   4   0.08813     0.11892    -0.23091     0.01181    -0.19221     0.14320
 PZ  C   4  -0.05869     0.09548    -0.00028     0.05572     0.00158     0.01121
  
  S  C   5  -0.02029     0.00742    -0.02445     0.02020    -0.02537    -0.02306
 PX  C   5   0.02315    -0.22842    -0.16937     0.11514    -0.07016    -0.16107
 PY  C   5  -0.14260    -0.16046     0.11811    -0.00764     0.05163    -0.10286
 PZ  C   5  -0.06263     0.07405     0.02168     0.16897     0.09687     0.09427
  
  S  C   6  -0.02270     0.01257     0.01885    -0.00425     0.00640     0.01987
 PX  C   6  -0.10539     0.24170     0.13527    -0.05147     0.04475     0.13375
 PY  C   6   0.22053     0.12917    -0.15034    -0.03562    -0.07743     0.07984
 PZ  C   6  -0.01008     0.07315    -0.03356     0.23887     0.11965     0.15003
  
  S  C   7  -0.01461    -0.06898    -0.02093     0.01584    -0.05262     0.02445
 PX  C   7   0.00107     0.06160     0.09983    -0.07913     0.05995     0.16481
 PY  C   7  -0.16666     0.01496    -0.08442     0.01752    -0.21242     0.16035
 PZ  C   7  -0.00458     0.07522     0.03268    -0.14392    -0.01149    -0.03484
  
  S  C   8   0.01018     0.07246    -0.00952     0.02782    -0.03574     0.00464
 PX  C   8  -0.12100    -0.12441    -0.05039     0.14821    -0.07903    -0.19642
 PY  C   8   0.00203    -0.11824     0.11878    -0.01159     0.14412    -0.12754
 PZ  C   8  -0.04394     0.05792     0.00177    -0.10221    -0.12133    -0.07159
  
  S  C   9   0.03371    -0.06061    -0.00527    -0.00517    -0.00076    -0.01806
 PX  C   9   0.12445     0.05589     0.07172    -0.13044     0.13094     0.19946
 PY  C   9  -0.22154    -0.00565     0.04246     0.06057    -0.28753     0.17320
 PZ  C   9  -0.00259     0.03662     0.04051    -0.27704    -0.17370    -0.10576
  
  S  C  10   0.03214     0.05383    -0.00035     0.00361    -0.00696    -0.01537
 PX  C  10  -0.08683     0.03393     0.04206     0.14757    -0.12110    -0.17672
 PY  C  10   0.24061    -0.02430     0.01870    -0.05731     0.29415    -0.16434
 PZ  C  10   0.00140     0.03354     0.03654    -0.28068    -0.11133    -0.12566
  
  S  C  11  -0.00048    -0.07175     0.00597     0.01424    -0.03543     0.00767
 PX  C  11   0.07877    -0.08641    -0.02357    -0.13285     0.09633     0.18819
 PY  C  11  -0.04232    -0.11991     0.10986     0.02682    -0.14183     0.11773
 PZ  C  11   0.00451    -0.03759     0.01009    -0.13266    -0.04308    -0.05890
  
  S  H  12   0.06510     0.02983    -0.10829    -0.08440     0.17352    -0.01436
  
  S  C  13  -0.00536     0.07755     0.01390     0.02622    -0.04839     0.02852
 PX  C  13  -0.03104     0.06457     0.08010     0.17027    -0.05743    -0.19183
 PY  C  13   0.14400    -0.00896    -0.12075    -0.04013     0.21583    -0.14817
 PZ  C  13   0.02206    -0.03253     0.03447    -0.10077    -0.10962    -0.08400
  
  S  H  14   0.12329    -0.00951     0.12087    -0.06515     0.20940    -0.05095
  
  S  H  15   0.13325     0.16543    -0.08223    -0.02145    -0.03494     0.10821
  
  S  H  16  -0.21367    -0.00240     0.22568    -0.02628     0.11009    -0.01606
  
  S  H  17  -0.14545    -0.01230     0.18159    -0.03581     0.08887    -0.01091
  
  S  H  18   0.10302    -0.22467    -0.13507     0.05736    -0.04059    -0.12175
  
  S  H  19   0.05529    -0.01792     0.12829    -0.06685     0.17364    -0.02844
  
  S  H  20   0.12643     0.00129    -0.14125    -0.11024     0.22006    -0.03587
  
  S  C  21  -0.01675    -0.01901     0.02565     0.03773    -0.02402    -0.01908
 PX  C  21  -0.10428    -0.21392    -0.14759    -0.15231     0.08705     0.17668
 PY  C  21   0.15123    -0.16131     0.11989     0.02552    -0.04303     0.09169
 PZ  C  21  -0.00660    -0.05143    -0.04664     0.20272     0.12776     0.04498
  
  S  C  22  -0.02787     0.00364    -0.00986    -0.01270    -0.00399     0.00535
 PX  C  22   0.18216     0.20399     0.09608     0.11934    -0.01523    -0.11023
 PY  C  22  -0.22374     0.14072    -0.14500     0.02299     0.06398    -0.08037
 PZ  C  22   0.00509    -0.12135    -0.02957     0.26092     0.14317     0.13662
  
  S  C  23  -0.01318    -0.01921    -0.00917     0.00182     0.00464    -0.00961
 PX  C  23  -0.10925    -0.20695    -0.06259    -0.04202     0.03837     0.16849
 PY  C  23   0.27017    -0.11033     0.16381     0.02103    -0.05536     0.06585
 PZ  C  23   0.03935    -0.05309     0.00763     0.29991     0.11121     0.10538
  
  S  C  24  -0.01396     0.01042     0.03181     0.02619    -0.03020     0.03969
 PX  C  24   0.09979     0.18142     0.02936     0.10123     0.00831    -0.16269
 PY  C  24  -0.19834     0.10403    -0.19412     0.02723     0.11438    -0.10477
 PZ  C  24   0.05180    -0.11807     0.03230     0.20749     0.05438     0.13216
  
  S  H  25  -0.18430     0.01816    -0.17372    -0.08277     0.08463     0.00351
  
  S  H  26   0.16281     0.21736     0.09239     0.09263    -0.02762    -0.12770
  
  S  H  27   0.16484    -0.20166     0.10542    -0.04764    -0.04081     0.13178
  
  S  H  28  -0.22252     0.01711    -0.17968    -0.04824     0.08861    -0.00529
  
  S  C  29   0.01635     0.03086    -0.01569    -0.00124     0.01344     0.00751
 PX  C  29   0.10849     0.18484     0.16872     0.17028    -0.10280    -0.17843
 PY  C  29  -0.04692     0.12103    -0.21207    -0.05901     0.18319    -0.11704
 PZ  C  29   0.01709    -0.06757    -0.03326     0.03931     0.05701    -0.02117
  
  S  C  30   0.00716    -0.04442     0.00456     0.00140    -0.01280    -0.00209
 PX  C  30   0.04737    -0.10133    -0.10120    -0.18632     0.10562     0.17733
 PY  C  30   0.12947    -0.12136     0.25794     0.04587    -0.19174     0.10960
 PZ  C  30   0.04693    -0.11067     0.01826     0.04335    -0.01068     0.02766




    ROOT NO.   37          38          39          40          41          42

           -10.51982    -9.87366    -9.62871    -8.24959    -8.04722    -6.75814
  
  
  S  C   1  -0.00504    -0.01100     0.00629    -0.00945    -0.00556    -0.00633
 PX  C   1  -0.00573    -0.02041     0.00663    -0.01305    -0.00939    -0.00739
 PY  C   1  -0.00721    -0.04393     0.00594    -0.02229    -0.03129    -0.02031
 PZ  C   1   0.09568     0.37019    -0.10609     0.21183     0.26052     0.18331
  
  S  C   2   0.01843     0.00345    -0.02190     0.02003    -0.00819     0.01271
 PX  C   2  -0.00054    -0.00277     0.00490    -0.00567    -0.00388    -0.00857
 PY  C   2  -0.02411    -0.02703     0.04359    -0.04211    -0.00141    -0.02824
 PZ  C   2   0.19800     0.17907    -0.29862     0.32696    -0.01908     0.23141
  
  S  C   3   0.00020    -0.00137    -0.00029    -0.00019     0.00639     0.00358
 PX  C   3   0.00736     0.01554     0.00864    -0.01539     0.02851    -0.00065
 PY  C   3  -0.01803     0.01734    -0.00085     0.01929     0.01756     0.02035
 PZ  C   3   0.20552    -0.21647    -0.27894     0.03381    -0.35846    -0.13118
  
  S  C   4  -0.00239    -0.00030     0.00220     0.00301    -0.00608     0.00534
 PX  C   4  -0.01955    -0.01908     0.00905     0.01151    -0.02068     0.01490
 PY  C   4   0.01101    -0.01031     0.01317    -0.01894    -0.00625    -0.01130
 PZ  C   4  -0.23080    -0.28907     0.20336    -0.05337    -0.33562     0.14392
  
  S  C   5   0.01474     0.00809    -0.01557     0.00815     0.00817     0.00367
 PX  C   5   0.00431     0.01131     0.00855    -0.02210     0.00997    -0.01716
 PY  C   5   0.03091    -0.00060    -0.04800     0.03581     0.00295     0.01968
 PZ  C   5  -0.21302     0.04971     0.36185    -0.34990    -0.00044    -0.24155
  
  S  C   6  -0.00592     0.00030     0.00873    -0.00431     0.00031    -0.00085
 PX  C   6  -0.01079     0.01291     0.01601    -0.00648     0.00950    -0.00429
 PY  C   6  -0.00216    -0.03243    -0.00821     0.01670    -0.02760     0.01987
 PZ  C   6  -0.09935     0.29854     0.24464    -0.22636     0.26987    -0.20787
  
  S  C   7  -0.00499     0.00408     0.01101     0.00343    -0.00146     0.00130
 PX  C   7  -0.03439     0.01039     0.02197     0.02801    -0.01045     0.03078
 PY  C   7   0.03498    -0.01102    -0.00669    -0.00679    -0.00607    -0.01537
 PZ  C   7   0.32190    -0.19605    -0.25183    -0.20376    -0.01096    -0.37781
  
  S  C   8   0.00936     0.00486    -0.00153    -0.01497    -0.00273    -0.01664
 PX  C   8   0.04291     0.02974    -0.03146    -0.01578     0.01364    -0.02468
 PY  C   8  -0.02542    -0.00345     0.00261     0.01763     0.00655     0.01998
 PZ  C   8  -0.32342    -0.23921     0.17136     0.21581     0.00361     0.37939
  
  S  C   9   0.00007     0.00517     0.00255     0.01249     0.01343     0.00120
 PX  C   9  -0.00181    -0.00795     0.02037    -0.01411    -0.04159    -0.00287
 PY  C   9   0.04185    -0.00268     0.00355    -0.00500    -0.01269    -0.01341
 PZ  C   9  -0.23991    -0.01068    -0.00422     0.24106     0.36650     0.00591
  
  S  C  10   0.00264    -0.00031    -0.00479    -0.00832     0.00366     0.00277
 PX  C  10   0.00715     0.00870    -0.01136    -0.00500     0.00282     0.00296
 PY  C  10  -0.04116     0.00592     0.00494     0.00493    -0.00324     0.01254
 PZ  C  10   0.27702    -0.03126    -0.01959    -0.21705     0.37862    -0.02105
  
  S  C  11   0.00158    -0.00391    -0.00094     0.01371    -0.00080    -0.01995
 PX  C  11  -0.01587    -0.00869     0.00971     0.01592    -0.00787    -0.01183
 PY  C  11  -0.00750    -0.00342    -0.00075     0.02681    -0.00901    -0.02760
 PZ  C  11   0.35419     0.15675     0.23611    -0.23919     0.01086     0.37055
  
  S  H  12  -0.01075    -0.00680    -0.00037    -0.00859     0.00472     0.00883
  
  S  C  13   0.01652    -0.00722     0.00661    -0.00980    -0.00796     0.00782
 PX  C  13   0.03761    -0.01491     0.01283    -0.01603     0.00672     0.03539
 PY  C  13  -0.02101    -0.00096    -0.00953    -0.00689     0.01075     0.01222
 PZ  C  13  -0.31381     0.26395    -0.16177     0.22033    -0.01957    -0.35311
  
  S  H  14  -0.02718     0.00277     0.00249     0.00762    -0.00186     0.00469
  
  S  H  15  -0.00338     0.00773     0.00565     0.00120     0.00516     0.00056
  
  S  H  16  -0.00180     0.00193    -0.00113    -0.00382     0.00070    -0.00818
  
  S  H  17   0.00170     0.00265    -0.00576     0.00098     0.00028    -0.00462
  
  S  H  18   0.00464    -0.00419    -0.00474    -0.00269    -0.00131    -0.00349
  
  S  H  19  -0.02931    -0.00570     0.00857     0.01248    -0.00182     0.01429
  
  S  H  20  -0.03534     0.00083    -0.01398    -0.00332     0.00581    -0.00150
  
  S  C  21   0.01176    -0.00799     0.01006     0.01066     0.00204    -0.00813
 PX  C  21  -0.00200    -0.00206     0.01779     0.01881    -0.01003    -0.00823
 PY  C  21   0.04059    -0.01446     0.05021     0.03943    -0.01083    -0.01908
 PZ  C  21   0.20426    -0.17269     0.31352     0.35010    -0.01516    -0.21629
  
  S  C  22  -0.00297     0.02262    -0.00309    -0.01261    -0.01941     0.01219
 PX  C  22   0.01842    -0.04882     0.01957     0.03713     0.03418    -0.02902
 PY  C  22  -0.01628    -0.02133    -0.01398     0.00746     0.01893    -0.01285
 PZ  C  22   0.09146    -0.35740     0.13084     0.25188     0.22233    -0.19407
  
  S  C  23  -0.00232     0.00287    -0.00218     0.00033    -0.00100    -0.00149
 PX  C  23  -0.02691    -0.06482    -0.04722    -0.04526     0.04774     0.03623
 PY  C  23   0.01330    -0.02364     0.00379    -0.00556     0.01495     0.00955
 PZ  C  23  -0.11308    -0.29751    -0.22933    -0.21200     0.24156     0.17551
  
  S  C  24  -0.01881    -0.00620    -0.03214    -0.03606     0.00070     0.02525
 PX  C  24  -0.01380     0.01755    -0.02241    -0.01921    -0.01278     0.00874
 PY  C  24  -0.04019     0.00141    -0.04821    -0.03341    -0.00296     0.01450
 PZ  C  24  -0.21187    -0.06823    -0.34025    -0.34500     0.01554     0.21894
  
  S  H  25  -0.02702     0.00216    -0.02346    -0.01298     0.00747     0.00469
  
  S  H  26   0.00998    -0.01218     0.00833     0.01534     0.01357    -0.01364
  
  S  H  27   0.01565    -0.01637     0.01458     0.00577     0.00869     0.00022
  
  S  H  28  -0.01225    -0.00447    -0.00266     0.01140     0.00460    -0.01361
  
  S  C  29   0.00277    -0.00097     0.00715     0.00238    -0.00297     0.00776
 PX  C  29   0.01426     0.00011    -0.00361    -0.00468     0.00422    -0.00187
 PY  C  29  -0.04584    -0.02502    -0.04724    -0.01673     0.03993    -0.00610
 PZ  C  29   0.23245     0.21999     0.27978     0.00435    -0.32512     0.16034
  
  S  C  30  -0.01105     0.01669    -0.01219     0.00055    -0.01338    -0.01188
 PX  C  30  -0.00641    -0.02406     0.00974     0.00619     0.02031    -0.00124
 PY  C  30   0.04359    -0.00429     0.03891     0.02022    -0.00138    -0.00431
 PZ  C  30  -0.21062     0.31704    -0.17043    -0.03782    -0.33370    -0.14570




    ROOT NO.   43          44          45          46          47          48

            -0.99894     0.21494     0.23111     1.18097     1.37970     1.78873
  
  
  S  C   1  -0.00332     0.00630    -0.00352    -0.00552    -0.00762    -0.00750
 PX  C   1  -0.00382     0.00665    -0.00402    -0.00404    -0.00785    -0.00394
 PY  C   1  -0.02384     0.03782     0.00677     0.01411    -0.04168     0.00726
 PZ  C   1   0.19914    -0.32828    -0.04646    -0.11966     0.37438    -0.06650
  
  S  C   2  -0.01765     0.00771     0.02764     0.03158    -0.00787     0.02315
 PX  C   2   0.00319     0.00323    -0.00462    -0.00324    -0.00341    -0.00221
 PY  C   2   0.02823    -0.01908    -0.03107    -0.03660     0.02444    -0.02366
 PZ  C   2  -0.24361     0.15259     0.28416     0.30397    -0.19221     0.18444
  
  S  C   3   0.01227    -0.01258    -0.01371    -0.01384     0.01123    -0.00506
 PX  C   3   0.00454    -0.01363     0.01472     0.02528     0.00801     0.02315
 PY  C   3   0.00219    -0.00682     0.01307     0.01501     0.00220     0.01313
 PZ  C   3  -0.13650     0.29250    -0.22168    -0.26894    -0.19922    -0.22877
  
  S  C   4  -0.00692    -0.00121     0.00591     0.01809    -0.01372     0.00976
 PX  C   4   0.00077    -0.01089    -0.00367    -0.00823     0.00179    -0.00944
 PY  C   4   0.00458    -0.00602    -0.00582     0.00256     0.00090     0.00335
 PZ  C   4  -0.13606    -0.32647     0.12655    -0.21537     0.29771    -0.23639
  
  S  C   5   0.00877    -0.00823    -0.00679    -0.02084     0.01301    -0.01619
 PX  C   5  -0.01005     0.00934     0.01462     0.01284     0.00658     0.00982
 PY  C   5   0.02412    -0.01174    -0.03171    -0.03652    -0.00836    -0.02333
 PZ  C   5  -0.24729     0.15295     0.29954     0.35181     0.05580     0.22478
  
  S  C   6   0.00326    -0.00311    -0.00326     0.00334    -0.00303     0.00582
 PX  C   6   0.00928     0.00268    -0.01240    -0.00592    -0.01116    -0.00199
 PY  C   6  -0.01983    -0.01137     0.03089     0.02511     0.02327     0.01440
 PZ  C   6   0.21006     0.13393    -0.33237    -0.22526    -0.30527    -0.12152
  
  S  C   7  -0.00785     0.01177     0.00806    -0.00205    -0.00889    -0.01189
 PX  C   7  -0.02317     0.00624     0.00910    -0.02212    -0.00738    -0.02980
 PY  C   7   0.01020     0.00032    -0.00306     0.00313     0.00573     0.01025
 PZ  C   7   0.37743    -0.11655    -0.15697     0.22052     0.17513     0.35366
  
  S  C   8  -0.01367     0.00368     0.01183    -0.02007     0.01763    -0.01423
 PX  C   8  -0.01987     0.00521     0.01844    -0.01201     0.01367    -0.01207
 PY  C   8   0.01174    -0.00211    -0.00268     0.00874    -0.00898     0.01123
 PZ  C   8   0.37118    -0.09790    -0.17930     0.15930    -0.24786     0.32145
  
  S  C   9  -0.00290     0.01319    -0.01456     0.01521    -0.00852    -0.00907
 PX  C   9  -0.01035    -0.03557    -0.00294    -0.00292     0.00596     0.00927
 PY  C   9  -0.00476    -0.01585    -0.00763     0.00771     0.00045     0.00185
 PZ  C   9  -0.01778     0.43707     0.02270     0.02876     0.03295    -0.24993
  
  S  C  10  -0.00334    -0.01372    -0.00320     0.00122    -0.00460     0.00558
 PX  C  10  -0.00621     0.00537    -0.01428     0.00279    -0.00364     0.00688
 PY  C  10  -0.00269     0.00230    -0.00261    -0.00461    -0.00094     0.00618
 PZ  C  10  -0.02328    -0.21870     0.37603     0.00595    -0.04285    -0.30565
  
  S  C  11   0.01726     0.00506     0.01390     0.01136     0.00575    -0.01930
 PX  C  11   0.01058    -0.00344     0.01046     0.00445     0.00029    -0.01066
 PY  C  11   0.02223     0.00264     0.01522     0.01247     0.00545    -0.01970
 PZ  C  11  -0.35144    -0.09503    -0.19323    -0.25757    -0.15552     0.33580
  
  S  H  12  -0.00633    -0.00185     0.00006    -0.01480    -0.00221     0.01733
  
  S  C  13   0.01211     0.01092     0.01404    -0.01917     0.01083     0.01251
 PX  C  13   0.03248     0.02413     0.01797     0.00029    -0.01110    -0.00834
 PY  C  13   0.00948     0.00756     0.00413     0.00615    -0.00961    -0.00912
 PZ  C  13  -0.34518    -0.07833    -0.17714    -0.20217     0.23903     0.32871
  
  S  H  14   0.00641    -0.00710    -0.00284     0.00249     0.00936     0.01180
  
  S  H  15   0.00456    -0.00218    -0.00160     0.00040     0.00247     0.00258
  
  S  H  16   0.00946     0.00114    -0.01940    -0.02266     0.00192    -0.01717
  
  S  H  17  -0.00566     0.01167     0.00378     0.01342    -0.01056     0.01098
  
  S  H  18  -0.00414     0.00655     0.00260    -0.00044    -0.00151    -0.00228
  
  S  H  19   0.00632    -0.00200    -0.00273     0.00932    -0.00572     0.01019
  
  S  H  20  -0.00482    -0.00357     0.00194    -0.00236    -0.00535    -0.00071
  
  S  C  21   0.00866    -0.00306     0.02045    -0.01262    -0.01072    -0.00141
 PX  C  21   0.01218     0.01670     0.00842    -0.01080     0.01490     0.00936
 PY  C  21   0.01992     0.01400     0.02507    -0.02097     0.00956     0.01077
 PZ  C  21   0.22332     0.18042     0.32764    -0.29861     0.14951     0.16709
  
  S  C  22   0.01635     0.02446     0.00568    -0.00594     0.02618     0.00889
 PX  C  22  -0.02340    -0.03696    -0.01098     0.01221    -0.03802    -0.01039
 PY  C  22  -0.00889    -0.01823     0.00545    -0.00979    -0.02387     0.00685
 PZ  C  22  -0.20451    -0.31781    -0.11790     0.10217    -0.34459    -0.06544
  
  S  C  23  -0.01020    -0.01934    -0.02344     0.04208    -0.01011    -0.03696
 PX  C  23  -0.02559     0.02178    -0.03724     0.01463     0.04623     0.00165
 PY  C  23  -0.00702     0.01106    -0.01607     0.01326     0.02606    -0.00578
 PZ  C  23  -0.18570     0.08266    -0.31643     0.23631     0.31691    -0.09427
  
  S  C  24   0.02835     0.04168     0.05213    -0.08250     0.00519     0.06401
 PX  C  24   0.02076     0.00161     0.02379    -0.01266    -0.01566     0.00290
 PY  C  24   0.02281     0.00248     0.02870    -0.01752    -0.02208     0.00457
 PZ  C  24   0.22188     0.17163     0.32027    -0.32760    -0.08855     0.17465
  
  S  H  25  -0.00789     0.00018    -0.00853     0.00049     0.00522     0.00600
  
  S  H  26  -0.01021    -0.01700     0.00073    -0.00196    -0.01784    -0.00137
  
  S  H  27   0.00018     0.01121     0.00994    -0.02619     0.00809     0.02474
  
  S  H  28  -0.02006    -0.02600    -0.03286     0.04963     0.00061    -0.03845
  
  S  C  29  -0.00549     0.01857    -0.01748    -0.00478     0.01983     0.01826
 PX  C  29  -0.00268    -0.01233    -0.00506     0.01482    -0.00988    -0.01156
 PY  C  29  -0.01337    -0.00817     0.01359    -0.03008    -0.00500     0.02499
 PZ  C  29   0.16625     0.26628    -0.17834     0.30098     0.24361    -0.21074
  
  S  C  30  -0.00216    -0.04231    -0.01368     0.05359    -0.03420    -0.05028
 PX  C  30  -0.01702     0.00348    -0.01323     0.00351     0.01491    -0.00335
 PY  C  30  -0.01094     0.00151    -0.02241     0.02084     0.01629    -0.01066
 PZ  C  30   0.13851    -0.32008     0.10407     0.19162    -0.31367    -0.21853




    ROOT NO.   49          50          51          52          53          54

             2.30849     2.44575     2.76494     3.07991     3.28572     3.35794
  
  
  S  C   1   0.05080     0.11029     0.15944    -0.05543     0.23003    -0.09677
 PX  C   1   0.01296     0.02795     0.02435     0.02311    -0.01538    -0.07646
 PY  C   1  -0.01503     0.04533     0.01996    -0.05348     0.04704     0.03790
 PZ  C   1   0.23245    -0.21788     0.11063     0.22759     0.05238     0.05661
  
  S  C   2  -0.09591    -0.14022    -0.21012    -0.00916    -0.16225     0.19298
 PX  C   2  -0.02010    -0.02782    -0.01940    -0.01776     0.04845     0.03850
 PY  C   2  -0.01365    -0.08486    -0.05089     0.03520     0.00262     0.06324
 PZ  C   2  -0.16591     0.19052    -0.07740    -0.25078    -0.02665    -0.07405
  
  S  C   3   0.14296     0.24288     0.27300    -0.02472     0.07035    -0.22164
 PX  C   3   0.00282     0.01111    -0.05080     0.02886    -0.09367    -0.09501
 PY  C   3   0.01477     0.04864     0.02811    -0.05632    -0.02254     0.10739
 PZ  C   3   0.04875    -0.07601     0.08511     0.30832     0.06317     0.08592
  
  S  C   4  -0.14109    -0.23278    -0.26511     0.11889    -0.07565    -0.15675
 PX  C   4  -0.02488    -0.02098     0.00176    -0.04942     0.07928     0.03660
 PY  C   4   0.00866     0.01870     0.05909     0.00201     0.06564    -0.15827
 PZ  C   4  -0.03317     0.04998    -0.09853    -0.29644    -0.07402    -0.09715
  
  S  C   5   0.08473     0.16220     0.20265    -0.15702     0.17972     0.16618
 PX  C   5   0.04370     0.04966     0.05535    -0.00791    -0.02957     0.04169
 PY  C   5  -0.02119     0.00860    -0.03048    -0.01582    -0.05477    -0.00680
 PZ  C   5   0.16210    -0.13489     0.11884     0.22467     0.06076     0.06232
  
  S  C   6  -0.05579    -0.10252    -0.15891     0.10554    -0.24281    -0.09915
 PX  C   6  -0.02296    -0.02291    -0.03759     0.01205    -0.02532    -0.00154
 PY  C   6   0.01009    -0.03149     0.00274     0.04289     0.02820    -0.07210
 PZ  C   6  -0.22505     0.19725    -0.11274    -0.21692    -0.03952    -0.05553
  
  S  C   7  -0.13175    -0.22356    -0.14019    -0.04852     0.11973     0.27372
 PX  C   7   0.00414     0.02809     0.08588    -0.03219     0.09406    -0.02321
 PY  C   7  -0.02398    -0.04406     0.01717    -0.04739     0.07367     0.01159
 PZ  C   7   0.09154    -0.06772    -0.00112    -0.17066    -0.04375    -0.04721
  
  S  C   8   0.13584     0.20572     0.13103    -0.02967    -0.14037     0.29596
 PX  C   8   0.02359     0.01698    -0.06672     0.03426    -0.12242     0.04640
 PY  C   8  -0.02365    -0.03269    -0.05494     0.03215    -0.03942     0.00078
 PZ  C   8  -0.11759     0.09994     0.02046     0.15359     0.04808     0.08662
  
  S  C   9  -0.13875    -0.22188    -0.00233    -0.05283     0.30419    -0.27320
 PX  C   9  -0.02801     0.01193     0.06058    -0.04129     0.03833     0.06980
 PY  C   9  -0.00266     0.03336     0.03409     0.03851    -0.05944    -0.12946
 PZ  C   9   0.27056    -0.20381     0.08241    -0.03156    -0.06451    -0.02641
  
  S  C  10   0.14294     0.23790     0.00871     0.15144    -0.30378    -0.14457
 PX  C  10   0.00879    -0.02455    -0.06660     0.03294     0.02585    -0.06611
 PY  C  10   0.01180     0.00537    -0.03895     0.00495    -0.06934     0.17355
 PZ  C  10  -0.23096     0.19860    -0.09789     0.04696     0.06054     0.03428
  
  S  C  11  -0.15218    -0.19013     0.11723    -0.16619     0.15607     0.20728
 PX  C  11   0.00707     0.05037     0.06143     0.02138    -0.11257    -0.01482
 PY  C  11  -0.03576    -0.01638     0.05553    -0.02037    -0.03330     0.01761
 PZ  C  11   0.04922    -0.12015     0.12664     0.09090    -0.01194     0.01749
  
  S  H  12   0.08064     0.10266    -0.07267     0.09208    -0.10495    -0.08544
  
  S  C  13   0.13835     0.15886    -0.10794     0.02603    -0.13584     0.26413
 PX  C  13   0.03209    -0.01409    -0.07569     0.00489     0.08161    -0.02406
 PY  C  13  -0.01696    -0.04328    -0.01226    -0.00180     0.06331    -0.04573
 PZ  C  13  -0.12098     0.10823    -0.09442    -0.11745     0.00820    -0.01521
  
  S  H  14   0.07042     0.11961     0.08342     0.00497    -0.07541    -0.12768
  
  S  H  15  -0.03184    -0.06961    -0.09605     0.03518    -0.13516     0.07401
  
  S  H  16   0.05287     0.06970     0.12340     0.00682     0.10918    -0.08135
  
  S  H  17  -0.04585    -0.09788    -0.12529     0.10583    -0.12414    -0.07522
  
  S  H  18   0.03449     0.06188     0.09635    -0.06061     0.14754     0.07699
  
  S  H  19  -0.07613    -0.12031    -0.08513     0.00030     0.09764    -0.15299
  
  S  H  20  -0.06884    -0.08561     0.06034    -0.03169     0.08638    -0.10976
  
  S  C  21  -0.11513    -0.12166     0.21691    -0.13435    -0.18328     0.15140
 PX  C  21   0.03310     0.04973    -0.04242     0.03366    -0.04389    -0.05668
 PY  C  21  -0.02056     0.00434     0.02495     0.00930    -0.05135    -0.01492
 PZ  C  21  -0.26533     0.10406     0.09420     0.21787     0.02265     0.01278
  
  S  C  22   0.06221     0.09266    -0.18162     0.11233     0.26833    -0.04708
 PX  C  22   0.01192    -0.03397     0.02764    -0.02995    -0.02805    -0.01046
 PY  C  22   0.01375    -0.02194    -0.00635    -0.03364     0.04146     0.07797
 PZ  C  22   0.33959    -0.14288    -0.09674    -0.19058     0.00492    -0.03989
  
  S  C  23  -0.08801    -0.07290     0.19294    -0.03941    -0.26960    -0.12403
 PX  C  23  -0.01309     0.02863    -0.01151    -0.00586    -0.03577     0.05615
 PY  C  23  -0.01562     0.02629    -0.01910     0.04109     0.03664    -0.03348
 PZ  C  23  -0.30047     0.16661     0.04588     0.20039     0.04292     0.06683
  
  S  C  24   0.15394     0.08136    -0.22753    -0.02322     0.14684     0.16610
 PX  C  24  -0.01035    -0.02474     0.00938     0.00460     0.06817    -0.02187
 PY  C  24  -0.01924    -0.04974     0.04792    -0.02374     0.00562    -0.04307
 PZ  C  24   0.17911    -0.13622    -0.00666    -0.20232    -0.07156    -0.10500
  
  S  H  25   0.06341     0.06737    -0.13376     0.07973     0.13066    -0.07235
  
  S  H  26  -0.04043    -0.05781     0.11028    -0.06891    -0.15706     0.04411
  
  S  H  27   0.05714     0.04824    -0.12490     0.02323     0.17811     0.09656
  
  S  H  28  -0.09646    -0.04155     0.14386     0.01717    -0.10034    -0.07620
  
  S  C  29   0.17573     0.17505    -0.25713     0.13537     0.04463    -0.16730
 PX  C  29  -0.01176    -0.02213    -0.01698     0.01285     0.08687    -0.04114
 PY  C  29   0.00813    -0.00805    -0.04967    -0.02674     0.06179     0.11322
 PZ  C  29   0.10507     0.00292    -0.13318    -0.25248    -0.01552    -0.02393
  
  S  C  30  -0.17730    -0.15063     0.25733    -0.02027    -0.03964    -0.15302
 PX  C  30  -0.01817     0.00528     0.06452    -0.02562    -0.08600     0.09038
 PY  C  30   0.00570     0.03703    -0.01573     0.05096    -0.03105    -0.10055
 PZ  C  30  -0.03347     0.01478     0.08165     0.25322     0.03413     0.08124




    ROOT NO.   55          56          57          58          59          60

             3.52140     3.58820     3.70915     3.89762     4.19805     4.24913
  
  
  S  C   1  -0.14015    -0.28262    -0.23346     0.13281    -0.12978    -0.00226
 PX  C   1  -0.00325     0.09154     0.02787     0.09332    -0.12125    -0.02039
 PY  C   1  -0.00601    -0.08783    -0.03101    -0.05369     0.05180    -0.00414
 PZ  C   1  -0.10411     0.01427    -0.01673    -0.02167     0.02288     0.01099
  
  S  C   2   0.10927    -0.00155     0.07111    -0.24935     0.31068     0.04928
 PX  C   2  -0.03748    -0.14050    -0.09555    -0.01592     0.00398     0.00195
 PY  C   2  -0.03544    -0.07314    -0.06244    -0.01395    -0.04345    -0.01230
 PZ  C   2   0.11102    -0.05768    -0.00877     0.05097    -0.07332    -0.02689
  
  S  C   3   0.02690     0.24887     0.16280     0.15598    -0.03300     0.04449
 PX  C   3   0.03281     0.00185    -0.05826     0.02139     0.14590     0.09209
 PY  C   3   0.06836     0.06360     0.11869    -0.13338     0.09056    -0.02276
 PZ  C   3  -0.21136     0.10094    -0.00132    -0.04899     0.06464     0.03824
  
  S  C   4  -0.08121    -0.18485    -0.26130     0.13779    -0.00392     0.06435
 PX  C   4  -0.00245    -0.10744     0.00149    -0.09410     0.17720     0.04250
 PY  C   4  -0.00754     0.06010     0.05096     0.09869     0.07052     0.08313
 PZ  C   4   0.21861    -0.09330     0.00393     0.04653    -0.04431    -0.03072
  
  S  C   5   0.02791    -0.12237     0.09013    -0.22951     0.30817     0.04897
 PX  C   5   0.04511     0.14262     0.12475    -0.00998    -0.04952    -0.01729
 PY  C   5   0.05089     0.08499     0.07286    -0.01241     0.03504     0.00832
 PZ  C   5  -0.11876     0.04911     0.01033    -0.03387     0.04872     0.02176
  
  S  C   6   0.10349     0.35389     0.18190     0.09850    -0.09217     0.00153
 PX  C   6  -0.00050     0.00251    -0.01297     0.00341    -0.03301    -0.01916
 PY  C   6  -0.05838    -0.04826    -0.09334     0.10690    -0.13453    -0.01576
 PZ  C   6   0.08724    -0.04593    -0.01243     0.02528    -0.02812    -0.01125
  
  S  C   7  -0.05537    -0.13428     0.05670    -0.11744    -0.24547    -0.20219
 PX  C   7  -0.01345     0.09203     0.10900     0.06087    -0.07155    -0.00123
 PY  C   7   0.00968     0.02642     0.08011     0.04707     0.01038     0.05332
 PZ  C   7   0.20524    -0.09963     0.01669     0.03936    -0.04949    -0.03774
  
  S  C   8   0.05101     0.10080     0.01045    -0.14265    -0.27126    -0.20798
 PX  C   8  -0.00066    -0.06191    -0.14499     0.05080    -0.00180     0.06542
 PY  C   8  -0.02018    -0.03037    -0.06712     0.01409    -0.07217    -0.03215
 PZ  C   8  -0.21628     0.09869    -0.01537    -0.05284     0.01136     0.01559
  
  S  C   9  -0.02263     0.03682     0.24524     0.02393     0.09496    -0.07864
 PX  C   9  -0.00235     0.05908     0.04943    -0.08728    -0.10768    -0.12961
 PY  C   9  -0.00280     0.01684    -0.09048    -0.07051     0.08694    -0.13655
 PZ  C   9   0.30954    -0.14311     0.02165     0.06220    -0.02551    -0.03755
  
  S  C  10   0.00692    -0.03426    -0.27978    -0.04262     0.14829    -0.03997
 PX  C  10  -0.01422    -0.07101     0.05930    -0.06562     0.01989    -0.16068
 PY  C  10  -0.00109    -0.05070    -0.06262    -0.04873    -0.11771    -0.02715
 PZ  C  10  -0.29971     0.14006    -0.01799    -0.06063     0.02296     0.02359
  
  S  C  11   0.05191     0.15368    -0.01040     0.11510    -0.10893     0.32533
 PX  C  11   0.00731     0.04358    -0.16909     0.02334     0.05199     0.02376
 PY  C  11   0.00322     0.04222    -0.08348     0.01347     0.04548    -0.06163
 PZ  C  11   0.23043    -0.10520     0.02845     0.05322    -0.01539    -0.00124
  
  S  H  12  -0.04506    -0.10844     0.01430    -0.06065     0.07815    -0.29561
  
  S  C  13  -0.01283    -0.09775     0.00251     0.15991    -0.07137     0.36948
 PX  C  13  -0.02723    -0.03616     0.13790     0.08291     0.02665    -0.04709
 PY  C  13  -0.00104     0.00144     0.05769     0.04225     0.00657     0.05469
 PZ  C  13  -0.24455     0.11669    -0.03908    -0.06591     0.00031     0.03350
  
  S  H  14   0.05682     0.08987    -0.02145     0.07374     0.21141     0.19987
  
  S  H  15   0.07854     0.16730     0.13960    -0.08613     0.05062    -0.01752
  
  S  H  16  -0.07860    -0.00765    -0.04509     0.15084    -0.25532    -0.05971
  
  S  H  17  -0.02392     0.08243    -0.06634     0.15180    -0.27075    -0.06079
  
  S  H  18  -0.07069    -0.22237    -0.12075    -0.06373     0.01641    -0.02455
  
  S  H  19  -0.02623    -0.08798    -0.00023     0.09737     0.24420     0.21163
  
  S  H  20   0.00217     0.07128     0.00481    -0.08675     0.04487    -0.32179
  
  S  C  21  -0.11454     0.02906    -0.05877     0.28707     0.19760    -0.20983
 PX  C  21  -0.06834    -0.10029     0.14007     0.01653     0.01482    -0.02904
 PY  C  21  -0.03973    -0.06494     0.08253    -0.00742    -0.03350     0.04798
 PZ  C  21   0.14483    -0.07944     0.03805     0.01514    -0.00773    -0.00362
  
  S  C  22   0.22993     0.15879    -0.21155    -0.17215    -0.04847     0.01319
 PX  C  22  -0.02076     0.00298    -0.00906    -0.01340     0.00969    -0.03455
 PY  C  22   0.03003     0.08283    -0.09812     0.11607     0.09076    -0.09235
 PZ  C  22  -0.08414     0.07533    -0.05196    -0.05777    -0.01638     0.02278
  
  S  C  23  -0.19350    -0.21487     0.24485    -0.10919    -0.09100     0.07612
 PX  C  23  -0.06291    -0.04564     0.08335     0.13075     0.05931    -0.07041
 PY  C  23   0.04235     0.00345    -0.01411    -0.07576    -0.03397     0.00858
 PZ  C  23   0.11488    -0.04993     0.02769     0.06772     0.01638    -0.01719
  
  S  C  24  -0.01817     0.06290     0.02316     0.30961     0.16694    -0.19679
 PX  C  24   0.08765     0.09496    -0.14224    -0.06192     0.00283     0.00058
 PY  C  24   0.02192     0.05745    -0.08796    -0.03017     0.03657    -0.05195
 PZ  C  24  -0.14199     0.05338    -0.04000    -0.14482    -0.05566     0.07074
  
  S  H  25   0.08554    -0.01448     0.04233    -0.19178    -0.16665     0.20663
  
  S  H  26  -0.13283    -0.09525     0.13088     0.11100     0.01091     0.04200
  
  S  H  27   0.13453     0.14715    -0.17119     0.07497     0.04680    -0.00622
  
  S  H  28   0.02212    -0.04344    -0.02177    -0.20534    -0.14129     0.19994
  
  S  C  29  -0.06961    -0.19821     0.29349    -0.10311    -0.05517    -0.03039
 PX  C  29   0.06847     0.03450    -0.02260    -0.13871    -0.10407     0.12609
 PY  C  29  -0.01107    -0.00859     0.09174     0.12174    -0.02987     0.11633
 PZ  C  29  -0.24550     0.14354    -0.07496    -0.05712     0.00381     0.02246
  
  S  C  30   0.10934     0.13458    -0.27084    -0.23826    -0.00792    -0.06046
 PX  C  30   0.00684     0.00702    -0.07237     0.00800    -0.04280     0.16234
 PY  C  30  -0.01757    -0.08565     0.08989    -0.14379    -0.07835     0.04874
 PZ  C  30   0.24729    -0.14983     0.10096     0.12833     0.01062    -0.02077




    ROOT NO.   61          62          63          64          65          66

             5.19602     5.32150     5.58086     5.67740     6.14178     6.41961
  
  
  S  C   1  -0.04496     0.00591    -0.20162    -0.28044    -0.07850     0.02366
 PX  C   1   0.12139    -0.04857    -0.02616     0.17819     0.13325    -0.05865
 PY  C   1  -0.04981     0.02901     0.22156     0.17110     0.01584    -0.00065
 PZ  C   1  -0.01220     0.00489     0.01648     0.00319    -0.00290     0.00123
  
  S  C   2  -0.16757     0.06666     0.04435    -0.19657    -0.14217     0.06549
 PX  C   2  -0.05768     0.01600    -0.11715    -0.20337    -0.07132     0.02626
 PY  C   2   0.03470    -0.01994    -0.01611     0.13444     0.19770    -0.14516
 PZ  C   2   0.02941    -0.01128    -0.00517     0.04466     0.03999    -0.02419
  
  S  C   3   0.04094    -0.00891     0.07282    -0.00504    -0.15010     0.12338
 PX  C   3  -0.16997     0.05486     0.05550    -0.06477     0.08514    -0.09577
 PY  C   3  -0.03087     0.02275     0.03366    -0.09693    -0.17096     0.11750
 PZ  C   3  -0.01824     0.00518     0.00030    -0.02107    -0.00663     0.00042
  
  S  C   4  -0.05735     0.00615    -0.03752     0.03268     0.16480    -0.11364
 PX  C   4   0.10760    -0.04455    -0.10095     0.08165     0.09490    -0.04885
 PY  C   4   0.09202    -0.03258     0.05362     0.05491    -0.14773     0.14570
 PZ  C   4  -0.00136     0.00279     0.01370     0.00709    -0.00725     0.00550
  
  S  C   5   0.14062    -0.05914    -0.15819     0.08862     0.13353    -0.06043
 PX  C   5   0.03277    -0.00713     0.01078    -0.05512    -0.13773     0.09180
 PY  C   5   0.10833    -0.05162    -0.21738    -0.01020     0.13887    -0.08698
 PZ  C   5   0.02010    -0.00983    -0.03592     0.00286     0.02684    -0.01628
  
  S  C   6   0.13882    -0.06430    -0.26575    -0.08808     0.04981    -0.02444
 PX  C   6  -0.09509     0.05131     0.29434     0.13156    -0.06388     0.03538
 PY  C   6  -0.07286     0.02745    -0.01347    -0.16044    -0.10431     0.04053
 PZ  C   6  -0.00912     0.00354    -0.00217    -0.01787    -0.01069     0.00456
  
  S  C   7   0.23101    -0.06845    -0.07079     0.06741    -0.10373     0.11025
 PX  C   7   0.06875    -0.02276     0.00832    -0.02595    -0.12247     0.11078
 PY  C   7  -0.07640     0.02174     0.08158    -0.09867     0.08525    -0.23484
 PZ  C   7   0.02076    -0.00588    -0.00352     0.01021    -0.01228     0.01829
  
  S  C   8  -0.18498     0.06743    -0.00208    -0.10878     0.08560    -0.10835
 PX  C   8   0.03047    -0.04197    -0.06842     0.07899     0.00808     0.13991
 PY  C   8  -0.09390     0.03479    -0.02951    -0.07631     0.14984    -0.21826
 PZ  C   8  -0.00683    -0.00034    -0.00582    -0.00406     0.00435     0.00383
  
  S  C   9  -0.00748     0.05188     0.09800    -0.08957    -0.01576    -0.15751
 PX  C   9  -0.13830     0.04929     0.00342    -0.06704     0.07302    -0.08342
 PY  C   9  -0.08716     0.03857    -0.08850     0.09833     0.06397     0.18574
 PZ  C   9  -0.01197     0.00382    -0.00747     0.00516     0.00681     0.00813
  
  S  C  10  -0.01250     0.00675    -0.09063     0.13249     0.01559     0.16770
 PX  C  10   0.15312    -0.00876     0.04938    -0.02788    -0.09644    -0.09716
[...]
  S   H   18   -0.0767    0.0422    0.0227   -0.0269   -0.0202    0.0026    0.3162   -0.1008
  S   H   19   -0.1447    0.2444   -0.2461    0.1942    0.0250   -0.0112    0.0559    0.1508
  S   H   20    0.1810    0.2601   -0.2996   -0.0956   -0.0620    0.0484   -0.0099   -0.1905
  S   C   21    0.1084    0.0431    0.0322    0.0227   -0.0053    0.0526   -0.0003    0.0045
  Px  C   21    0.1184    0.0630    0.1681    0.2927   -0.1538   -0.0910    0.0043    0.0867
  Py  C   21   -0.1310   -0.0728   -0.0641   -0.0915    0.0386    0.2637   -0.0013    0.0655
  Pz  C   21   -0.0047    0.0000    0.0023   -0.0019    0.0035   -0.0199   -0.0003   -0.0112
  S   C   22    0.0583    0.0286   -0.0280   -0.0462    0.0249   -0.1059   -0.0002   -0.0509
  Px  C   22    0.0814    0.0397   -0.0234   -0.0364    0.0145    0.4986    0.0020    0.1728
  Py  C   22    0.0714    0.0226    0.0338    0.0555   -0.0324   -0.0651    0.0006   -0.0032
  Pz  C   22   -0.0067   -0.0034   -0.0048   -0.0065    0.0035   -0.0585   -0.0002   -0.0222
  S   C   23   -0.0261   -0.0028   -0.0290   -0.0447    0.0240    0.1324    0.0004    0.0110
  Px  C   23   -0.0992   -0.0462   -0.0004    0.0142   -0.0139   -0.2127   -0.0015    0.0436
  Py  C   23    0.0005    0.0063   -0.0476   -0.0757    0.0379   -0.4594   -0.0016   -0.0951
  Pz  C   23    0.0078    0.0036    0.0040    0.0058   -0.0024    0.0565    0.0003   -0.0035
  S   C   24   -0.1071   -0.0510    0.0146    0.0096   -0.0015   -0.0693   -0.0002    0.0505
  Px  C   24    0.0369    0.0106    0.0252    0.0570   -0.0367   -0.2154   -0.0010    0.0298
  Py  C   24   -0.1895   -0.1543    0.1421    0.2813   -0.1588    0.2167   -0.0013   -0.1860
  Pz  C   24    0.0358    0.0206   -0.0114   -0.0269    0.0168    0.0022    0.0003    0.0067
  S   H   25   -0.1917   -0.0929   -0.1302   -0.1947    0.0922    0.1645   -0.0021    0.0054
  S   H   26   -0.1018   -0.0482    0.0182    0.0249   -0.0090   -0.3097   -0.0015   -0.1077
  S   H   27    0.0590    0.0230    0.0340    0.0422   -0.0172    0.2961    0.0014    0.0384
  S   H   28    0.1941    0.1285   -0.0927   -0.1762    0.0967   -0.1718    0.0006    0.1041
  S   C   29    0.1456    0.0840    0.1140    0.2439   -0.1443    0.0040    0.0003    0.0168
  Px  C   29   -0.0779   -0.0419    0.0077    0.0869   -0.0686   -0.0809    0.0060    0.1099
  Py  C   29    0.1641    0.1568   -0.0040   -0.1056    0.0948   -0.0212   -0.0006    0.0853
  Pz  C   29   -0.0009    0.0015   -0.0116   -0.0199    0.0117   -0.0036   -0.0000    0.0037
  S   C   30   -0.1690   -0.1416    0.0837    0.2252   -0.1466   -0.0179    0.0011   -0.0021
  Px  C   30   -0.0908   -0.0892   -0.0280   -0.0761    0.0493    0.0819   -0.0011   -0.2295
  Py  C   30    0.1360    0.0859    0.0306    0.1521   -0.1113    0.0605   -0.0027   -0.0965
  Pz  C   30    0.0149    0.0136   -0.0091   -0.0220    0.0137    0.0088   -0.0001   -0.0091


   Root No.      73        74        75        76        77        78        79        80

                73 A      74 A      75 A      76 A      77 A      78 A      79 A      80 A   

                 9.320     9.541    10.148    10.567    11.029    11.609    11.741    12.104
  
  S   C    1    0.0449   -0.0789   -0.0550   -0.0691    0.0473    0.0246    0.0049    0.0014
  Px  C    1    0.1701   -0.2488    0.0061   -0.2115   -0.1383   -0.0689   -0.1524   -0.1881
  Py  C    1    0.0686   -0.1477   -0.2206   -0.0700    0.2441    0.1142    0.1226    0.1389
  Pz  C    1    0.0170   -0.0307   -0.0272   -0.0198    0.0250    0.0117    0.0090    0.0095
  S   C    2   -0.0814    0.0907   -0.0472    0.0440    0.0888    0.0492    0.0187    0.0193
  Px  C    2    0.1611   -0.2491   -0.0457   -0.2345   -0.0456   -0.0086   -0.1469   -0.1875
  Py  C    2   -0.2308    0.1984   -0.1510   -0.0002    0.1999    0.1242   -0.0531   -0.0668
  Pz  C    2   -0.0190    0.0138   -0.0144   -0.0048    0.0159    0.0105   -0.0095   -0.0120
  S   C    3   -0.0182    0.0525    0.0053    0.0662    0.0333    0.0172    0.0147    0.0147
  Px  C    3   -0.1840    0.1189   -0.2233   -0.0479    0.0087   -0.1766    0.1665    0.1215
  Py  C    3   -0.0900    0.0504   -0.1095   -0.0521    0.2773    0.2832   -0.2332   -0.2398
  Pz  C    3   -0.0109    0.0068   -0.0162   -0.0043    0.0129    0.0033   -0.0010   -0.0032
  S   C    4   -0.0151    0.0346    0.0057    0.0537   -0.0272   -0.0156   -0.0158   -0.0133
  Px  C    4   -0.0847    0.1119    0.2619   -0.1450   -0.2415   -0.1052    0.1377    0.1792
  Py  C    4   -0.0639    0.1407    0.1587    0.0279    0.1499    0.3211   -0.2534   -0.2104
  Pz  C    4    0.0007   -0.0017   -0.0049    0.0037    0.0063    0.0040   -0.0026   -0.0048
  S   C    5   -0.0514    0.0712    0.0731    0.0206   -0.0998   -0.0548   -0.0117   -0.0108
  Px  C    5   -0.0436    0.0416    0.1772   -0.1824   -0.1503   -0.0707    0.1588    0.2036
  Py  C    5    0.2039   -0.2647   -0.1357   -0.1514    0.1837    0.1063    0.0938    0.1229
  Pz  C    5    0.0202   -0.0258   -0.0183   -0.0087    0.0222    0.0124    0.0027    0.0034
  S   C    6    0.0453   -0.0512    0.0370   -0.0626   -0.0390   -0.0117   -0.0023    0.0033
  Px  C    6    0.1345   -0.1286    0.1276   -0.1481   -0.1072   -0.0296   -0.0103   -0.0004
  Py  C    6    0.0819   -0.1471   -0.1713   -0.1317    0.2747    0.1493    0.2051    0.2482
  Pz  C    6    0.0007   -0.0058   -0.0198   -0.0033    0.0276    0.0134    0.0188    0.0222
  S   C    7    0.0770   -0.0083    0.0726    0.0815    0.0415    0.0611    0.0077   -0.0077
  Px  C    7   -0.1376    0.1378   -0.1408    0.0376    0.0395   -0.1230    0.1975    0.1375
  Py  C    7    0.2196    0.0199    0.1255    0.2419    0.1171    0.0941    0.1285    0.0248
  Pz  C    7   -0.0124    0.0095   -0.0122    0.0008    0.0007   -0.0105    0.0114    0.0085
  S   C    8    0.0466   -0.0563   -0.0895    0.0726   -0.0467   -0.0815   -0.0185    0.0016
  Px  C    8    0.0700   -0.0050   -0.0122    0.1765   -0.1262   -0.0188   -0.2063   -0.0645
  Py  C    8   -0.1466    0.1931    0.2369   -0.1013    0.0433    0.1843   -0.0679   -0.0643
  Pz  C    8    0.0105   -0.0087   -0.0138    0.0180   -0.0131   -0.0130   -0.0123   -0.0028
  S   C    9   -0.0041   -0.0316   -0.0454    0.0072   -0.0032   -0.0345   -0.0036   -0.0111
  Px  C    9    0.1076   -0.0672   -0.0945    0.2308   -0.1911   -0.0993   -0.2067   -0.0636
  Py  C    9    0.0770   -0.0807    0.1220    0.1278   -0.0820    0.2358    0.3506   -0.0689
  Pz  C    9    0.0096   -0.0060   -0.0019    0.0204   -0.0153    0.0013   -0.0085   -0.0056
  S   C   10    0.0042   -0.0343    0.0413   -0.0068    0.0058    0.0351    0.0019   -0.0040
  Px  C   10    0.1440    0.0503   -0.0547    0.2625    0.1641   -0.1689   -0.1823    0.1001
  Py  C   10    0.1025    0.0681    0.1477    0.1521    0.1055    0.1983    0.3666    0.0343
  Pz  C   10    0.0056    0.0026    0.0003    0.0075    0.0055   -0.0005    0.0040    0.0020
  S   C   11   -0.0616   -0.0539    0.0675   -0.0817   -0.0296    0.0806    0.0090    0.0113
  Px  C   11    0.1028   -0.0011   -0.0005    0.2051    0.1206   -0.0883   -0.1819    0.1109
  Py  C   11   -0.2037   -0.2025    0.1967   -0.1182   -0.0077    0.1545   -0.0719    0.1163
  Pz  C   11   -0.0120   -0.0146    0.0149   -0.0044    0.0022    0.0092   -0.0089    0.0099
  S   H   12   -0.1312   -0.1027    0.1005   -0.1021   -0.0382    0.1076    0.0170    0.0337
  S   C   13   -0.0722    0.0030   -0.0722   -0.0761    0.0329   -0.0746   -0.0123   -0.0245
  Px  C   13   -0.1286   -0.0915   -0.1460    0.0183   -0.0558   -0.0764    0.1373   -0.1833
  Py  C   13    0.1837   -0.0655    0.0872    0.2287   -0.1200    0.1361    0.1262   -0.0253
  Pz  C   13   -0.0078   -0.0075   -0.0117    0.0038   -0.0066   -0.0043    0.0131   -0.0149
  S   H   14    0.1503   -0.0305    0.1054    0.0976    0.0498    0.0922    0.0112   -0.0301
  S   H   15    0.0903   -0.1595   -0.1147   -0.1052    0.0828    0.0384    0.0120    0.0096
  S   H   16   -0.1641    0.1707   -0.0651    0.0644    0.1209    0.0734    0.0094    0.0134
  S   H   17   -0.1157    0.1436    0.1179    0.0204   -0.1361   -0.0769    0.0008   -0.0009
  S   H   18    0.0783   -0.0728    0.0842   -0.0872   -0.0735   -0.0240   -0.0085   -0.0044
  S   H   19    0.0888   -0.0983   -0.1226    0.0821   -0.0556   -0.1039   -0.0183    0.0204
  S   H   20   -0.1264    0.0140   -0.0810   -0.1045    0.0522   -0.1010   -0.0299   -0.0394
  S   C   21    0.0728    0.0855   -0.0709   -0.0322   -0.0833    0.0722    0.0154   -0.0145
  Px  C   21   -0.0863   -0.0755    0.1726   -0.1708    0.1514   -0.0940    0.0846   -0.2162
  Py  C   21    0.2633    0.2888   -0.1168   -0.1839   -0.1308    0.1297    0.0682   -0.1377
  Pz  C   21   -0.0211   -0.0257    0.0076    0.0273    0.0127   -0.0144   -0.0121    0.0235
  S   C   22   -0.0642   -0.0632   -0.0346    0.0776   -0.0377    0.0210    0.0089    0.0050
  Px  C   22    0.1676    0.1421    0.1139   -0.1676    0.1011   -0.0560   -0.0285    0.0086
  Py  C   22    0.1061    0.1578   -0.1516   -0.1457   -0.2037    0.1965    0.1494   -0.2640
  Pz  C   22   -0.0284   -0.0278   -0.0082    0.0306   -0.0050   -0.0005   -0.0050    0.0152
  S   C   23   -0.0584   -0.0862    0.0528    0.0790    0.0341   -0.0255    0.0019    0.0008
  Px  C   23    0.1694    0.2047    0.0354   -0.2110    0.1401   -0.1323   -0.1405    0.2045
  Py  C   23    0.0506    0.1096   -0.1841   -0.0540   -0.1827    0.1471    0.0920   -0.1446
  Pz  C   23   -0.0308   -0.0380    0.0039    0.0338   -0.0109    0.0112    0.0171   -0.0252
  S   C   24    0.0824    0.0716    0.0597   -0.0437    0.0855   -0.0730   -0.0180    0.0176
  Px  C   24    0.1763    0.2279   -0.0277   -0.2420    0.0577   -0.0560   -0.1342    0.2035
  Py  C   24   -0.2127   -0.1174   -0.1874   -0.0313   -0.1784    0.1449   -0.0555    0.1003
  Pz  C   24   -0.0046   -0.0148    0.0067    0.0234   -0.0044    0.0053    0.0146   -0.0206
  S   H   25    0.1566    0.1639   -0.1086   -0.0364   -0.1099    0.0940    0.0062    0.0006
  S   H   26   -0.0985   -0.0836   -0.0703    0.1021   -0.0608    0.0343    0.0134   -0.0001
  S   H   27   -0.0716   -0.1133    0.0819    0.0882    0.0498   -0.0351   -0.0019    0.0078
  S   H   28    0.1548    0.1177    0.0853   -0.0470    0.1029   -0.0875   -0.0071    0.0029
  S   C   29    0.0203    0.0389   -0.0120   -0.0555   -0.0286    0.0307    0.0065   -0.0070
  Px  C   29   -0.1306   -0.1395    0.2497   -0.1391    0.2308   -0.1550    0.0781   -0.2082
  Py  C   29   -0.0895   -0.1413    0.1246    0.0022   -0.0932    0.2778   -0.2037    0.3041
  Pz  C   29   -0.0076   -0.0106    0.0072    0.0020   -0.0064    0.0183   -0.0143    0.0202
  S   C   30    0.0236    0.0491    0.0062   -0.0589    0.0371   -0.0307   -0.0122    0.0099
  Px  C   30   -0.1673   -0.0620   -0.2207   -0.0586   -0.0225   -0.1553    0.1141   -0.1888
  Py  C   30   -0.0826   -0.0043   -0.1544   -0.0864   -0.2318    0.2792   -0.1877    0.3154
  Pz  C   30   -0.0116   -0.0095   -0.0100    0.0036   -0.0072    0.0007    0.0029   -0.0031


   Root No.      81        82        83        84

                81 A      82 A      83 A      84 A   

                12.474    12.667    13.137    14.405
  
  S   C    1    0.0662   -0.0156   -0.0176    0.0389
  Px  C    1    0.1634   -0.2582   -0.1926    0.1034
  Py  C    1    0.0631    0.1426    0.0906    0.0249
  Pz  C    1    0.0161    0.0067    0.0029    0.0078
  S   C    2    0.0129    0.0213    0.0115    0.0243
  Px  C    2    0.2213   -0.2656   -0.2014    0.1491
  Py  C    2    0.1463   -0.0843   -0.0636    0.1189
  Pz  C    2    0.0170   -0.0153   -0.0113    0.0131
  S   C    3   -0.0155    0.0079   -0.0071    0.0241
  Px  C    3    0.2002   -0.1480   -0.2702    0.2261
  Py  C    3    0.1603   -0.1378   -0.0194    0.1069
  Pz  C    3    0.0178   -0.0129   -0.0148    0.0169
  S   C    4   -0.0064    0.0015    0.0114    0.0274
  Px  C    4    0.2653    0.1559    0.0985    0.2094
  Py  C    4    0.1686    0.0316    0.1792    0.1340
  Pz  C    4   -0.0072   -0.0049   -0.0025   -0.0045
  S   C    5    0.0129   -0.0183   -0.0145    0.0267
  Px  C    5    0.2599    0.1718    0.0958    0.1731
  Py  C    5    0.1114    0.1419    0.0990    0.0457
  Pz  C    5    0.0021    0.0054    0.0043   -0.0016
  S   C    6    0.0588   -0.0011   -0.0014    0.0348
  Px  C    6    0.1253   -0.0118   -0.0096    0.0718
  Py  C    6    0.1392    0.2680    0.1786    0.0613
  Pz  C    6    0.0056    0.0242    0.0160    0.0021
  S   C    7   -0.0630    0.0057    0.0102    0.0101
  Px  C    7    0.1504   -0.1408   -0.2732    0.2502
  Py  C    7   -0.0538   -0.0939   -0.1103    0.1482
  Pz  C    7    0.0101   -0.0083   -0.0166    0.0146
  S   C    8   -0.0581    0.0125    0.0015    0.0129
  Px  C    8    0.1529    0.1696    0.2102    0.2721
  Py  C    8    0.2014    0.0381    0.1157    0.1246
  Pz  C    8    0.0005    0.0094    0.0095    0.0141
  S   C    9   -0.0628   -0.0094    0.0105    0.0098
  Px  C    9    0.0724    0.1613    0.2167    0.2872
  Py  C    9   -0.0820   -0.2512    0.1280    0.1497
  Pz  C    9    0.0049    0.0065    0.0188    0.0246
  S   C   10   -0.0625    0.0136    0.0050   -0.0047
  Px  C   10   -0.0321    0.1541   -0.2322    0.2653
  Py  C   10   -0.0269   -0.2592   -0.1270    0.1391
  Pz  C   10   -0.0007   -0.0025   -0.0067    0.0081
  S   C   11   -0.0633   -0.0001   -0.0050   -0.0113
  Px  C   11   -0.1068    0.1695   -0.2295    0.2519
  Py  C   11   -0.2042    0.0647   -0.1465    0.1216
  Pz  C   11   -0.0178    0.0083   -0.0141    0.0141
  S   H   12   -0.0636   -0.0188   -0.0148   -0.0038
  S   C   13   -0.0579    0.0022    0.0196   -0.0035
  Px  C   13   -0.1810   -0.0973    0.2751    0.2782
  Py  C   13   -0.0051   -0.0999    0.1167    0.1695
  Pz  C   13   -0.0147   -0.0095    0.0235    0.0241
  S   H   14   -0.0571   -0.0152    0.0214    0.0007
  S   H   15    0.0814   -0.0078   -0.0121    0.0408
  S   H   16    0.0086    0.0311    0.0271    0.0128
  S   H   17    0.0135   -0.0212   -0.0231    0.0196
  S   H   18    0.0677   -0.0138   -0.0113    0.0364
  S   H   19   -0.0517    0.0264   -0.0087    0.0023
  S   H   20   -0.0316    0.0293    0.0138   -0.0109
  S   C   21    0.0088    0.0265   -0.0232   -0.0245
  Px  C   21   -0.2236    0.1956   -0.1032    0.1673
  Py  C   21   -0.1064    0.1778   -0.1273    0.0503
  Pz  C   21    0.0194   -0.0256    0.0163   -0.0100
  S   C   22    0.0617   -0.0100    0.0029   -0.0368
  Px  C   22   -0.1222   -0.0014    0.0097    0.0705
  Py  C   22   -0.1127    0.3002   -0.2095    0.0597
  Pz  C   22    0.0223   -0.0172    0.0104   -0.0126
  S   C   23    0.0671    0.0007   -0.0109   -0.0399
  Px  C   23   -0.1702   -0.2314    0.1938    0.1017
  Py  C   23   -0.0412    0.1576   -0.1068    0.0223
  Pz  C   23    0.0265    0.0280   -0.0239   -0.0153
  S   C   24    0.0098   -0.0317    0.0236   -0.0220
  Px  C   24   -0.2243   -0.2166    0.1859    0.1433
  Py  C   24   -0.1595   -0.0549    0.0451    0.1219
  Pz  C   24    0.0215    0.0198   -0.0162   -0.0118
  S   H   25    0.0096    0.0282   -0.0324   -0.0186
  S   H   26    0.0701   -0.0009   -0.0058   -0.0378
  S   H   27    0.0669   -0.0093   -0.0023   -0.0359
  S   H   28    0.0128   -0.0316    0.0309   -0.0134
  S   C   29   -0.0036    0.0004    0.0077   -0.0286
  Px  C   29   -0.2316    0.1816   -0.0985    0.2016
  Py  C   29   -0.1737    0.0539   -0.2239    0.1218
  Pz  C   29   -0.0113    0.0054   -0.0168    0.0094
  S   C   30    0.0015   -0.0009   -0.0139   -0.0371
  Px  C   30   -0.2090   -0.0923    0.2739    0.2445
  Py  C   30   -0.1787   -0.1039   -0.0125    0.1042
  Pz  C   30   -0.0096   -0.0059    0.0121    0.0135


              NET ATOMIC CHARGES AND DIPOLE CONTRIBUTIONS

  ATOM NO.   TYPE          CHARGE      No. of ELECS.   s-Pop       p-Pop       
    1          C          -0.023737        4.0237     1.08549     2.93825
    2          C          -0.024317        4.0243     1.09606     2.92826
    3          C           0.009915        3.9901     1.07449     2.91560
    4          C           0.013290        3.9867     1.07546     2.91125
    5          C          -0.037654        4.0377     1.10740     2.93025
    6          C          -0.031203        4.0312     1.10639     2.92481
    7          C          -0.036138        4.0361     1.10666     2.92948
    8          C          -0.036679        4.0367     1.10479     2.93189
    9          C           0.010397        3.9896     1.06845     2.92115
   10          C           0.006512        3.9935     1.07398     2.91951
   11          C          -0.041413        4.0414     1.10120     2.94021
   12          H           0.027200        0.9728     0.97280
   13          C          -0.029395        4.0294     1.09644     2.93295
   14          H           0.021087        0.9789     0.97891
   15          H           0.033070        0.9669     0.96693
   16          H           0.023404        0.9766     0.97660
   17          H           0.034367        0.9656     0.96563
   18          H           0.020929        0.9791     0.97907
   19          H           0.026515        0.9735     0.97349
   20          H           0.014056        0.9859     0.98594
   21          C          -0.029263        4.0293     1.10390     2.92536
   22          C          -0.024026        4.0240     1.09742     2.92661
   23          C          -0.017502        4.0175     1.09897     2.91853
   24          C          -0.032985        4.0330     1.11080     2.92219
   25          H           0.031987        0.9680     0.96801
   26          H           0.019312        0.9807     0.98069
   27          H           0.019009        0.9810     0.98099
   28          H           0.028490        0.9715     0.97151
   29          C           0.013131        3.9869     1.07293     2.91394
   30          C           0.011643        3.9884     1.06769     2.92067
 DIPOLE           X         Y         Z       TOTAL
 POINT-CHG.    -0.019    -0.102    -0.037     0.110
 HYBRID         0.082     0.093    -0.239     0.270
 SUM            0.063    -0.009    -0.277     0.284


          ATOMIC ORBITAL ELECTRON POPULATIONS

     Atom    s        px        py        pz   
    1  C   1.08549   0.98323   0.95439   1.00063
    2  C   1.09606   0.97283   0.95560   0.99983
    3  C   1.07449   0.96148   0.96432   0.98980
    4  C   1.07546   0.96444   0.96746   0.97935
    5  C   1.10740   0.96764   0.95493   1.00768
    6  C   1.10639   0.94623   0.98038   0.99819
    7  C   1.10666   0.95745   0.95715   1.01488
    8  C   1.10479   0.96696   0.94550   1.01944
    9  C   1.06845   0.96598   0.97398   0.98119
   10  C   1.07398   0.96418   0.97469   0.98064
   11  C   1.10120   0.96201   0.94851   1.02969
   12  H   0.97280
   13  C   1.09644   0.97602   0.94819   1.00874
   14  H   0.97891
   15  H   0.96693
   16  H   0.97660
   17  H   0.96563
   18  H   0.97907
   19  H   0.97349
   20  H   0.98594
   21  C   1.10390   0.96974   0.95954   0.99608
   22  C   1.09742   0.94547   0.98275   0.99839
   23  C   1.09897   0.99064   0.94168   0.98620
   24  C   1.11080   0.97583   0.94484   1.00152
   25  H   0.96801
   26  H   0.98069
   27  H   0.98099
   28  H   0.97151
   29  C   1.07293   0.96310   0.97269   0.97815
   30  C   1.06769   0.97790   0.95954   0.98323

 **********************
 *                    *
 * JOB ENDED NORMALLY *
 *                    *
 **********************



 TOTAL JOB TIME:             2.27 SECONDS

 == MOPAC DONE ==


          MOPAC Job: "./tetraceneTraj/tetracene_840.mop" ended normally on Feb 15, 2023, at 11:28.

rm: cannot remove ./tetraceneTraj/tetracene_840.cim: No such file or directory
rm: cannot remove ./tetraceneTraj/tetracene_840.end: No such file or directory
rm: cannot remove ./tetraceneTraj/tetracene_840.log: No such file or directory
rm: cannot remove ./tetraceneTraj/tetracene_840.temp: No such file or directory
rm: cannot remove ./tetraceneTraj/tetracene_840.ple: No such file or directory
rm: cannot remove ./tetraceneTraj/tetracene_840.sts: No such file or directory
