 *******************************************************************************
 ** Site#:    0         For non-commercial use only    Version 20.173L 64BITS **
 *******************************************************************************
 ** Cite this program as: MOPAC2016, Version: 20.173L, James J. P. Stewart,   **
 ** Stewart Computational Chemistry, web-site: HTTP://OpenMOPAC.net.          **
 *******************************************************************************
 **                                                                           **
 **                                MOPAC2016                                  **
 **                                                                           **
 *******************************************************************************

                              INDO CALCULATION RESULTS

 *******************************************************************************
 *  CALCULATION DONE:                                Wed Feb 15 11:31:59 2023  *
 *  INDO       - The INDO Hamiltonian to be used
 *
 *
 *
 *                 CHARGE ON SYSTEM = 0
 *
 *
 *
 *  C.I.=(N,M) - 3 DOUBLY FILLED LEVELS USED IN A C.I. INVOLVING 6 M.O.'S
 *  T=         - A TIME OF 172800.0 SECONDS REQUESTED
 *  DUMP=N     - RESTART FILE WRITTEN EVERY 7200.0 SECONDS REQUESTED
 *  RELSCF     - DEFAULT SCF CRITERION MULTIPLIED BY 0.0000
 *              (DEFAULT SCF CRITERION = 0.00010)
 *  ALLVEC     - PRINT ALL EIGENVECTORS
 **********
 *  WARNING: Specified print options may not behave as expected with INDO
 **********
 *******************************************************************************
INDO C.I.=(6,3) AllVEC CHARGE=0 RELSCF=0.000001


   ATOM   CHEMICAL          X               Y               Z
  NUMBER   SYMBOL      (ANGSTROMS)     (ANGSTROMS)     (ANGSTROMS)
 
     1       C         18.54435836  *  19.50815733  *  22.37547809  *
     2       C         19.91803332  *  19.46204573  *  22.30712509  *
     3       C         20.70066049  *  20.70717027  *  22.42568846  *
     4       C         19.95788403  *  21.97372507  *  22.45738888  *
     5       C         18.50108653  *  21.94355107  *  22.40189625  *
     6       C         17.80505721  *  20.74683974  *  22.37856541  *
     7       C         22.12330553  *  20.65543362  *  22.51174193  *
     8       C         20.74129244  *  23.17782607  *  22.55725254  *
     9       C         22.15642170  *  23.13987869  *  22.57830705  *
    10       C         22.86018002  *  21.84031909  *  22.63628350  *
    11       C         24.33347640  *  21.79448148  *  22.66465283  *
    12       H         24.81655445  *  20.78077227  *  22.64500282  *
    13       C         22.88912349  *  24.36425640  *  22.57574183  *
    14       H         22.70888149  *  19.71333613  *  22.53475214  *
    15       H         17.90218420  *  18.61153843  *  22.28247009  *
    16       H         20.47817856  *  18.49915276  *  22.29397810  *
    17       H         17.99706082  *  22.94915291  *  22.30941807  *
    18       H         16.72072745  *  20.73699553  *  22.23605787  *
    19       H         20.27359080  *  24.18542512  *  22.52110557  *
    20       H         22.32933336  *  25.30183822  *  22.53234648  *
    21       C         26.50075781  *  23.06048353  *  22.50404725  *
    22       C         27.14627750  *  24.28024088  *  22.45374508  *
    23       C         26.42001448  *  25.50597004  *  22.55551962  *
    24       C         25.07932378  *  25.53394247  *  22.59654207  *
    25       H         27.09153549  *  22.09964920  *  22.41769594  *
    26       H         28.22950372  *  24.38727366  *  22.24594862  *
    27       H         26.99659579  *  26.44836204  *  22.41658726  *
    28       H         24.49266847  *  26.45456645  *  22.68664519  *
    29       C         25.02955645  *  23.01541830  *  22.55314506  *
    30       C         24.29009833  *  24.27614417  *  22.54062089  *
 


          CARTESIAN COORDINATES 

    NO.       ATOM           X           Y           Z

     1         C         18.5444     19.5082     22.3755
     2         C         19.9180     19.4620     22.3071
     3         C         20.7007     20.7072     22.4257
     4         C         19.9579     21.9737     22.4574
     5         C         18.5011     21.9436     22.4019
     6         C         17.8051     20.7468     22.3786
     7         C         22.1233     20.6554     22.5117
     8         C         20.7413     23.1778     22.5573
     9         C         22.1564     23.1399     22.5783
    10         C         22.8602     21.8403     22.6363
    11         C         24.3335     21.7945     22.6647
    12         H         24.8166     20.7808     22.6450
    13         C         22.8891     24.3643     22.5757
    14         H         22.7089     19.7133     22.5348
    15         H         17.9022     18.6115     22.2825
    16         H         20.4782     18.4992     22.2940
    17         H         17.9971     22.9492     22.3094
    18         H         16.7207     20.7370     22.2361
    19         H         20.2736     24.1854     22.5211
    20         H         22.3293     25.3018     22.5323
    21         C         26.5008     23.0605     22.5040
    22         C         27.1463     24.2802     22.4537
    23         C         26.4200     25.5060     22.5555
    24         C         25.0793     25.5339     22.5965
    25         H         27.0915     22.0996     22.4177
    26         H         28.2295     24.3873     22.2459
    27         H         26.9966     26.4484     22.4166
    28         H         24.4927     26.4546     22.6866
    29         C         25.0296     23.0154     22.5531
    30         C         24.2901     24.2761     22.5406

           Empirical Formula: C18 H12  =    30 atoms



      MOLECULAR POINT GROUP   :   C1  


      RHF CALCULATION, NO. OF DOUBLY OCCUPIED LEVELS = 42

 WARNING: INDO only performs single-point calculations
  SCF CRITERION =    0.1000E-09

 Summary of symmetry occupancy in each shell:

 SHELL     
    1   42
    v   42
 TOTAL  84




    ROOT NO.    1           2           3           4           5           6

           -44.54683   -42.95278   -40.53472   -36.94889   -35.76652   -33.88228
  
  
  S  C   1   0.11437     0.22480    -0.27609     0.23963     0.06603     0.12867
 PX  C   1   0.02864     0.04842    -0.04080    -0.00148     0.03730     0.08976
 PY  C   1   0.04137     0.07790    -0.08734     0.06225    -0.01340    -0.04595
 PZ  C   1  -0.00116    -0.00278     0.00447    -0.00545    -0.00161    -0.00387
  
  S  C   2   0.14020     0.23830    -0.22127     0.08911     0.14874     0.29349
 PX  C   2  -0.00560    -0.03193     0.07651    -0.11012     0.02691     0.03355
 PY  C   2   0.05595     0.08718    -0.06355    -0.00176     0.01311     0.01449
 PZ  C   2   0.00649     0.01032    -0.00792     0.00040     0.00596     0.01062
  
  S  C   3   0.25359     0.30340    -0.07409    -0.19632     0.13132     0.20436
 PX  C   3   0.00566    -0.05302     0.13978    -0.13492     0.06674     0.05909
 PY  C   3   0.05206     0.02959     0.05985    -0.09294    -0.08729    -0.14284
 PZ  C   3   0.00410     0.00092     0.00864    -0.01172     0.00037    -0.00269
  
  S  C   4   0.24768     0.30006    -0.08319    -0.15846    -0.16694    -0.22345
 PX  C   4   0.04861     0.00007     0.12327    -0.15832     0.01126     0.07376
 PY  C   4  -0.02650    -0.06464     0.08593    -0.04600    -0.10014    -0.11730
 PZ  C   4   0.00136    -0.00182     0.00816    -0.00883    -0.00316    -0.00219
  
  S  C   5   0.13765     0.23665    -0.22721     0.12402    -0.13277    -0.28275
 PX  C   5   0.04411     0.05761    -0.01643    -0.05147    -0.03600    -0.03518
 PY  C   5  -0.03458    -0.07350     0.09854    -0.08998    -0.02719    -0.02345
 PZ  C   5   0.00049    -0.00013     0.00222    -0.00431    -0.00116    -0.00045
  
  S  C   6   0.11168     0.22088    -0.27477     0.25093    -0.03070    -0.11687
 PX  C   6   0.05004     0.09215    -0.09804     0.05745    -0.00204    -0.00611
 PY  C   6   0.00311     0.00216     0.00644    -0.02052    -0.04089    -0.09653
 PZ  C   6  -0.00029    -0.00100     0.00224    -0.00376    -0.00047    -0.00025
  
  S  C   7   0.22985     0.15424     0.14675    -0.25420     0.28534     0.20888
 PX  C   7  -0.02568    -0.06747     0.04156     0.07810     0.04420    -0.06352
 PY  C   7   0.07995     0.02853     0.08511    -0.06646     0.00930    -0.03955
 PZ  C   7   0.00216    -0.00126     0.00594    -0.00111     0.00465    -0.00388
  
  S  C   8   0.22976     0.14905     0.14867    -0.19839    -0.31636    -0.21618
 PX  C   8   0.05504    -0.01311     0.09584    -0.00502    -0.03317     0.06357
 PY  C   8  -0.06250    -0.07222    -0.00850     0.10569    -0.01907     0.03787
 PZ  C   8  -0.00397    -0.00498     0.00063     0.00550     0.00543     0.00735
  
  S  C   9   0.33059     0.03503     0.30258     0.01811    -0.23204    -0.03126
 PX  C   9   0.02782    -0.08039     0.02365     0.18546     0.09207     0.07223
 PY  C   9  -0.04051    -0.05246    -0.03211     0.12165    -0.14072     0.02135
 PZ  C   9  -0.00063    -0.00197     0.00051     0.00391     0.00312     0.00085
  
  S  C  10   0.32166     0.03978     0.29271    -0.02918     0.24176     0.02305
 PX  C  10  -0.02692    -0.08520    -0.02224     0.18560     0.09155    -0.04906
 PY  C  10   0.04808    -0.04108     0.04095     0.11648    -0.12831    -0.05164
 PZ  C  10  -0.01122    -0.00444    -0.00940     0.00870    -0.00661    -0.00344
  
  S  C  11   0.22916    -0.10285     0.14702     0.19855     0.34725    -0.15913
 PX  C  11  -0.04652    -0.02681    -0.08564    -0.00406    -0.02135    -0.07901
 PY  C  11   0.07289    -0.06314     0.01762     0.10695     0.00719    -0.05306
 PZ  C  11  -0.00915     0.00429    -0.00504    -0.00712    -0.01235     0.00723
  
  S  H  12   0.06664    -0.02570     0.04319     0.04253     0.16107    -0.06741
  
  S  C  13   0.24914    -0.11103     0.16415     0.25642    -0.30734     0.16320
 PX  C  13   0.03496    -0.06999    -0.03587     0.08325     0.03571     0.08667
 PY  C  13  -0.08033     0.00852    -0.08769    -0.06448     0.00168     0.04651
 PZ  C  13  -0.00158     0.00051    -0.00079    -0.00124     0.00375    -0.00179
  
  S  H  14   0.06980     0.04342     0.04461    -0.07019     0.14987     0.10045
  
  S  H  15   0.02927     0.06111    -0.08363     0.08885     0.02601     0.05430
  
  S  H  16   0.04159     0.06759    -0.05729     0.01377     0.07498     0.14486
  
  S  H  17   0.04004     0.06575    -0.05826     0.02886    -0.06972    -0.13854
  
  S  H  18   0.02879     0.06029    -0.08314     0.09208    -0.01339    -0.05289
  
  S  H  19   0.07060     0.04072     0.04664    -0.04246    -0.15814    -0.09934
  
  S  H  20   0.07778    -0.03187     0.05038     0.07280    -0.16309     0.07691
  
  S  C  21   0.16468    -0.22926    -0.19559    -0.10873     0.17115    -0.28807
 PX  C  21  -0.05196     0.05410     0.01124    -0.05346    -0.04712     0.03119
 PY  C  21   0.04479    -0.07690    -0.09198    -0.09096    -0.02953     0.01057
 PZ  C  21   0.00079    -0.00027     0.00157     0.00427     0.00035     0.00230
  
  S  C  22   0.14283    -0.22912    -0.25502    -0.24979     0.04094    -0.13279
 PX  C  22  -0.06310     0.09400     0.08900     0.05499    -0.00345     0.00785
 PY  C  22  -0.00236    -0.00089    -0.01067    -0.02834    -0.05522     0.09918
 PZ  C  22   0.00375    -0.00561    -0.00528    -0.00298    -0.00044     0.00114
  
  S  C  23   0.14863    -0.23753    -0.26250    -0.24952    -0.08705     0.12097
 PX  C  23  -0.03732     0.05128     0.03903     0.00045     0.04855    -0.09296
 PY  C  23  -0.05215     0.07955     0.07954     0.06004    -0.01960     0.05256
 PZ  C  23  -0.00266     0.00479     0.00637     0.00819    -0.00020     0.00223
  
  S  C  24   0.17837    -0.24599    -0.20500    -0.09320    -0.18581     0.28553
 PX  C  24   0.01069    -0.03958    -0.07957    -0.12013     0.03079    -0.03452
 PY  C  24  -0.06711     0.08402     0.05296    -0.00609     0.01011    -0.00581
 PZ  C  24  -0.00315     0.00506     0.00554     0.00484     0.00109    -0.00076
  
  S  H  25   0.04521    -0.06094    -0.04926    -0.02576     0.08308    -0.13332
  
  S  H  26   0.03653    -0.06226    -0.07724    -0.09247     0.01511    -0.05495
  
  S  H  27   0.03854    -0.06529    -0.08012    -0.09245    -0.03671     0.05553
  
  S  H  28   0.05542    -0.07220    -0.05341    -0.01287    -0.09800     0.14787
  
  S  C  29   0.28274    -0.26804    -0.04490     0.17713     0.21750    -0.21110
 PX  C  29  -0.04642    -0.01647    -0.12089    -0.15295     0.01659    -0.08401
 PY  C  29   0.03546    -0.06839    -0.08001    -0.04743    -0.11716     0.09946
 PZ  C  29   0.00250    -0.00051     0.00453     0.00821     0.00360    -0.00060
  
  S  C  30   0.29505    -0.27577    -0.03765     0.20993    -0.14407     0.18770
 PX  C  30   0.00068    -0.06535    -0.13739    -0.13612     0.07940    -0.05675
 PY  C  30  -0.05078     0.01284    -0.06505    -0.09332    -0.11410     0.13830
 PZ  C  30   0.00477    -0.00405     0.00089     0.00600    -0.00264     0.00514




    ROOT NO.    7           8           9          10          11          12

           -31.83965   -31.35067   -28.68191   -28.33690   -26.97078   -25.93922
  
  
  S  C   1   0.16655     0.26304     0.17332    -0.25199     0.02572     0.21409
 PX  C   1   0.11933    -0.09937     0.11395     0.16060    -0.04150     0.06432
 PY  C   1  -0.07315     0.02052    -0.09054     0.02191     0.05665    -0.11253
 PZ  C   1  -0.00612    -0.00892    -0.00788     0.01004     0.00139    -0.01035
  
  S  C   2   0.30898    -0.05024     0.17485     0.11815    -0.11423     0.02720
 PX  C   2  -0.02012    -0.13301    -0.12647     0.11034    -0.05953    -0.21086
 PY  C   2  -0.00858    -0.08125    -0.05538     0.09417     0.07153    -0.10300
 PZ  C   2   0.00869    -0.00707     0.00074     0.00879    -0.00077    -0.00542
  
  S  C   3   0.10727    -0.25307    -0.09672     0.11861     0.09092    -0.19509
 PX  C   3  -0.04909     0.05015    -0.14867    -0.14227    -0.05518    -0.08681
 PY  C   3  -0.10445    -0.01474     0.01910    -0.09830     0.17444     0.12064
 PZ  C   3  -0.00799     0.00290    -0.00728    -0.01417     0.00616     0.00460
  
  S  C   4  -0.09531    -0.27029     0.12152     0.10038     0.07568     0.19854
 PX  C   4   0.10980     0.00831     0.04344    -0.17324     0.11996    -0.04161
 PY  C   4  -0.02114     0.03633     0.09563    -0.09899    -0.14620     0.11997
 PZ  C   4   0.00231     0.00239     0.00573    -0.01322     0.00139     0.00564
  
  S  C   5  -0.29962    -0.05297    -0.15526     0.16892    -0.11315    -0.04437
 PX  C   5   0.02535    -0.14717     0.13572     0.10951     0.02299     0.19846
 PY  C   5   0.01445    -0.07980     0.07422     0.03053    -0.09061     0.11383
 PZ  C   5   0.00254    -0.00642     0.00737     0.00275     0.00216     0.01023
  
  S  C   6  -0.18294     0.27107    -0.21335    -0.20500     0.02872    -0.20422
 PX  C   6   0.00398    -0.02718     0.03948     0.08513     0.02743     0.06559
 PY  C   6  -0.12826    -0.08856    -0.12114     0.15881    -0.06110    -0.13182
 PZ  C   6   0.00077    -0.00887     0.00342     0.01078     0.00058     0.00512
  
  S  C   7  -0.13500     0.02260    -0.25835    -0.08328    -0.16766    -0.03285
 PX  C   7  -0.12946     0.14487     0.04673    -0.00773    -0.12356     0.21056
 PY  C   7  -0.07097     0.07778     0.01403    -0.09081     0.15179     0.10759
 PZ  C   7  -0.01288     0.01338     0.00073    -0.00732    -0.00442     0.02100
  
  S  C   8   0.12840     0.00876     0.21915    -0.15924    -0.17850     0.02973
 PX  C   8   0.11684     0.15558    -0.04572    -0.07051     0.05723    -0.19630
 PY  C   8   0.06741     0.08647    -0.02490     0.04581    -0.18753    -0.11159
 PZ  C   8   0.00283     0.00915    -0.00554    -0.00045     0.00369    -0.01008
  
  S  C   9   0.18535     0.24323     0.02063     0.00026     0.09164    -0.16421
 PX  C   9  -0.06459     0.00887    -0.08623     0.19372     0.13371     0.05296
 PY  C   9   0.12714    -0.01001    -0.04516     0.10609    -0.22600    -0.10539
 PZ  C   9  -0.00162     0.00429     0.00103     0.00331     0.00623    -0.00057
  
  S  C  10  -0.20904     0.23411    -0.00096     0.00975     0.08744     0.17377
 PX  C  10  -0.06116    -0.01396     0.12882     0.16601    -0.12464     0.06149
 PY  C  10   0.11867     0.01543     0.08564     0.08122     0.23218    -0.10412
 PZ  C  10   0.00455    -0.00354     0.00835     0.00744    -0.00560    -0.00038
  
  S  C  11  -0.14161     0.00698     0.25879     0.10003    -0.20112    -0.00551
 PX  C  11   0.11780    -0.13585     0.04019    -0.09198    -0.06912    -0.18651
 PY  C  11   0.06070    -0.07796     0.05387     0.02550     0.17897    -0.11629
 PZ  C  11   0.00132     0.00284    -0.00614    -0.00036     0.00259     0.00536
  
  S  H  12  -0.07014     0.00982     0.10240     0.01317    -0.22360     0.01275
  
  S  C  13   0.13965     0.02021    -0.22138     0.15394    -0.16668     0.01939
 PX  C  13  -0.11606    -0.14982    -0.07075    -0.00388     0.13115     0.19412
 PY  C  13  -0.06294    -0.08437    -0.04498    -0.08792    -0.15784     0.10614
 PZ  C  13  -0.00195     0.00129     0.00469    -0.00081     0.00480    -0.00218
  
  S  H  14  -0.06964     0.01642    -0.11368     0.00211    -0.21175    -0.00310
  
  S  H  15   0.07595     0.15049     0.09036    -0.18947     0.00031     0.14097
  
  S  H  16   0.14555    -0.02213     0.07279     0.04382    -0.11796     0.00233
  
  S  H  17  -0.14023    -0.02750    -0.06895     0.06846    -0.11637    -0.01385
  
  S  H  18  -0.09118     0.14914    -0.12876    -0.15320    -0.00096    -0.14347
  
  S  H  19   0.06841     0.01092     0.09947    -0.03493    -0.21645     0.00312
  
  S  H  20   0.07073     0.01160    -0.10620     0.03218    -0.21742     0.00495
  
  S  C  21   0.28361    -0.03762    -0.20100    -0.12268    -0.13245     0.03714
 PX  C  21   0.02206     0.13387    -0.11888     0.14333    -0.02316     0.18325
 PY  C  21   0.02259     0.07195    -0.08195     0.04658     0.10182     0.10304
 PZ  C  21  -0.00596    -0.00708     0.01204    -0.00663     0.00277    -0.01350
  
  S  C  22   0.16978     0.25835    -0.17656     0.25825     0.03735     0.18827
 PX  C  22   0.00256     0.02891    -0.02065     0.09907    -0.03039     0.06370
 PY  C  22  -0.12648     0.08534     0.16662     0.13152     0.06949    -0.10881
 PZ  C  22  -0.00277    -0.00355     0.00559    -0.01017     0.00309    -0.00998
  
  S  C  23  -0.16369     0.24254     0.24294     0.20219     0.02411    -0.17910
 PX  C  23   0.10940     0.09878    -0.08105     0.18878     0.04923     0.06500
 PY  C  23  -0.07370    -0.02001     0.10708    -0.00213    -0.06935    -0.10125
 PZ  C  23  -0.00260    -0.01424    -0.00032    -0.02001    -0.00486    -0.00142
  
  S  C  24  -0.27610    -0.06776     0.14329    -0.16395    -0.12408    -0.01923
 PX  C  24  -0.02821     0.13636     0.16752     0.08052     0.06219    -0.19171
 PY  C  24  -0.02215     0.07904     0.09327     0.07863    -0.08712    -0.09057
 PZ  C  24   0.00049    -0.00322    -0.00044    -0.00258    -0.00430     0.00079
  
  S  H  25   0.12955    -0.01301    -0.09093    -0.03969    -0.12935     0.02390
  
  S  H  26   0.07757     0.14574    -0.09026     0.19229     0.00520     0.12722
  
  S  H  27  -0.08175     0.13682     0.14719     0.15659    -0.00710    -0.12108
  
  S  H  28  -0.13454    -0.03661     0.05988    -0.06745    -0.13453     0.00778
  
  S  C  29   0.08580    -0.24014     0.11203    -0.13252     0.07307    -0.18701
 PX  C  29   0.10788    -0.01020    -0.08173    -0.15757    -0.13430    -0.04547
 PY  C  29   0.00052    -0.04107    -0.13906    -0.07671     0.16906     0.09842
 PZ  C  29  -0.00510    -0.00269     0.01275     0.00529     0.00041    -0.00614
  
  S  C  30  -0.07072    -0.24955    -0.14261    -0.09311     0.11405     0.16465
 PX  C  30  -0.04411    -0.04989     0.10887    -0.18422     0.05695    -0.07524
 PY  C  30  -0.08901    -0.00328    -0.05508    -0.09072    -0.18512     0.11869
 PZ  C  30  -0.00437    -0.00554     0.00050    -0.00169     0.00131     0.00355




    ROOT NO.   13          14          15          16          17          18

           -25.02722   -23.88212   -22.90107   -21.38671   -20.45642   -19.32392
  
  
  S  C   1  -0.00723    -0.10004    -0.00495     0.17560    -0.02157     0.02133
 PX  C   1   0.05009     0.24471     0.01225    -0.04711     0.21698     0.15455
 PY  C   1  -0.13918     0.02177    -0.19796    -0.11080    -0.11526     0.17826
 PZ  C   1  -0.00642     0.00390    -0.01111    -0.00667    -0.00822     0.01264
  
  S  C   2   0.17467     0.16017     0.13957    -0.13690     0.10412    -0.00279
 PX  C   2   0.07225    -0.06809     0.07213    -0.15753    -0.14922    -0.15282
 PY  C   2  -0.17242     0.00672    -0.21324    -0.06336    -0.15090     0.07663
 PZ  C   2  -0.00312     0.00424    -0.00855    -0.00318    -0.00598     0.01143
  
  S  C   3  -0.12995    -0.11884    -0.02838    -0.07954    -0.07033    -0.13899
 PX  C   3   0.13650    -0.15540     0.16132     0.11661     0.00495     0.01360
 PY  C   3  -0.18985    -0.06655    -0.03790     0.11168     0.14448    -0.07621
 PZ  C   3  -0.00374    -0.00986     0.00288     0.01817     0.01122     0.00822
  
  S  C   4  -0.09973    -0.10197    -0.02489     0.09912    -0.06046    -0.14815
 PX  C   4  -0.10279    -0.16087     0.04706    -0.17576     0.08980    -0.07622
 PY  C   4   0.23168    -0.09983     0.16308    -0.00767    -0.07742     0.03167
 PZ  C   4   0.00347    -0.01052     0.00746    -0.00621     0.00118     0.00778
  
  S  C   5   0.17253     0.17051     0.13250     0.10917     0.12177     0.01891
 PX  C   5  -0.08312    -0.00614    -0.13790     0.17920    -0.17544    -0.01402
 PY  C   5   0.16525    -0.04534     0.17612     0.12221    -0.02489    -0.16682
 PZ  C   5  -0.00596    -0.00254    -0.01003     0.00725    -0.01139     0.00876
  
  S  C   6  -0.02461    -0.12394     0.00140    -0.16519    -0.04677    -0.00240
 PX  C   6  -0.08860     0.14565    -0.16937     0.11110     0.01847     0.25412
 PY  C   6   0.10061     0.18872     0.10753    -0.09181     0.23389     0.04634
 PZ  C   6  -0.00460     0.01154    -0.01131     0.00992     0.00043     0.02221
  
  S  C   7   0.12759    -0.10099    -0.05896     0.21457    -0.05751     0.15727
 PX  C   7   0.03559     0.15157    -0.16755     0.05388     0.01663     0.12790
 PY  C   7  -0.10789     0.10508     0.03679     0.01058     0.21660    -0.01712
 PZ  C   7  -0.00192     0.01598    -0.01442     0.00855     0.01366     0.01450
  
  S  C   8   0.13811    -0.11324    -0.04708    -0.20335    -0.08746     0.15737
 PX  C   8  -0.08716     0.16876    -0.06775    -0.07099     0.18060     0.06870
 PY  C   8   0.08604     0.06660    -0.15390    -0.03720    -0.11137     0.14455
 PZ  C   8  -0.00355     0.01418    -0.00372    -0.00389     0.00627     0.01043
  
  S  C   9  -0.00277     0.23327     0.03248    -0.00356     0.00117    -0.00663
 PX  C   9  -0.00348     0.04334     0.11023     0.17945    -0.15208    -0.15351
 PY  C   9   0.01732    -0.08299    -0.19904     0.10193    -0.09969    -0.06908
 PZ  C   9   0.00017     0.01276     0.00503    -0.00490    -0.00490    -0.00135
  
  S  C  10   0.00540     0.23402     0.02773    -0.01565     0.00137    -0.01227
 PX  C  10   0.01430    -0.05226    -0.10768    -0.17014    -0.19148    -0.14074
 PY  C  10  -0.01788     0.07833     0.20302    -0.08679    -0.08601    -0.08375
 PZ  C  10  -0.00033     0.00171    -0.00579    -0.01721    -0.00988    -0.01314
  
  S  C  11  -0.13405    -0.10929    -0.06125    -0.21457     0.06367    -0.15804
 PX  C  11  -0.09812    -0.14480     0.06188     0.07521     0.20493     0.07027
 PY  C  11   0.05157    -0.07002     0.15478     0.06324    -0.09052     0.15718
 PZ  C  11   0.00346     0.00699    -0.00524    -0.00890    -0.00284    -0.01390
  
  S  H  12  -0.12180    -0.05733    -0.10595    -0.11838     0.14435    -0.15723
  
  S  C  13  -0.11980    -0.09865    -0.06346     0.20267     0.08812    -0.16236
 PX  C  13   0.00369    -0.14007     0.16683    -0.07207     0.01112     0.13084
 PY  C  13  -0.10255    -0.09369    -0.03980    -0.04231     0.22224    -0.01186
 PZ  C  13   0.00135     0.00770     0.00406    -0.00755    -0.00779     0.00043
  
  S  H  14   0.13360    -0.06051    -0.10935     0.11342    -0.14616     0.13206
  
  S  H  15   0.04812    -0.15565     0.09972     0.17191    -0.03538    -0.16888
  
  S  H  16   0.20846     0.05454     0.21373    -0.08203     0.08881    -0.10041
  
  S  H  17   0.20631     0.06004     0.20914     0.06989     0.09800    -0.08799
  
  S  H  18   0.04126    -0.16005     0.11188    -0.16368    -0.04064    -0.19394
  
  S  H  19   0.14116    -0.06756    -0.09794    -0.09763    -0.16086     0.14891
  
  S  H  20  -0.11799    -0.05919    -0.11090     0.09805     0.16802    -0.13288
  
  S  C  21  -0.17208     0.17921     0.12870     0.12167    -0.11159    -0.02110
 PX  C  21  -0.09920     0.02073     0.13691    -0.15554    -0.22017    -0.01156
 PY  C  21   0.16163     0.03569    -0.15427    -0.11756    -0.04644    -0.16367
 PZ  C  21   0.00876    -0.00339    -0.01341     0.00648     0.01770    -0.01375
  
  S  C  22   0.00669    -0.12212     0.00172    -0.16754     0.02962     0.00616
 PX  C  22  -0.10652    -0.13326     0.15873    -0.10409    -0.00001     0.26253
 PY  C  22   0.09520    -0.20364    -0.10057     0.04905     0.25950     0.05432
 PZ  C  22   0.01182     0.01461    -0.01982     0.01480     0.00181    -0.04372
  
  S  C  23   0.00056    -0.09885    -0.00182     0.16542     0.04077    -0.02513
 PX  C  23   0.02975    -0.24066    -0.00739     0.00867     0.22021     0.16199
 PY  C  23  -0.14729    -0.00464     0.19005     0.13314    -0.11791     0.18398
 PZ  C  23  -0.00323     0.02433     0.00093    -0.00376    -0.02328    -0.02356
  
  S  C  24  -0.15230     0.16766     0.11518    -0.11890    -0.11516     0.00212
 PX  C  24   0.08033     0.05747    -0.06801     0.18272    -0.12884    -0.16952
 PY  C  24  -0.18255     0.00827     0.20058     0.08707    -0.14552     0.08616
 PZ  C  24  -0.00926     0.00488     0.01161    -0.00544    -0.01180     0.00233
  
  S  H  25  -0.20716     0.07712     0.19639     0.07000    -0.10795     0.08239
  
  S  H  26  -0.05657    -0.16189     0.09979    -0.15540     0.03406     0.20869
  
  S  H  27  -0.06733    -0.13647     0.10330     0.16672     0.03495     0.17226
  
  S  H  28  -0.20651     0.06930     0.19195    -0.07369    -0.09157     0.11319
  
  S  C  29   0.09301    -0.10370    -0.01670     0.10174     0.07133     0.16023
 PX  C  29  -0.08318     0.14811    -0.05150     0.15907     0.13764    -0.08066
 PY  C  29   0.23907     0.08776    -0.14119     0.01605    -0.09296     0.03293
 PZ  C  29  -0.00325    -0.01064     0.00416    -0.01450     0.00294    -0.00646
  
  S  C  30   0.12598    -0.11633    -0.02114    -0.08899     0.04312     0.14441
 PX  C  30   0.15709     0.13979    -0.15232    -0.11037    -0.00930     0.01996
 PY  C  30  -0.17265     0.06767     0.01866    -0.13613     0.15002    -0.07927
 PZ  C  30  -0.00235    -0.00008     0.00618    -0.01174    -0.00340     0.00025




    ROOT NO.   19          20          21          22          23          24

           -18.20711   -17.21317   -17.17943   -16.58147   -16.07365   -15.32742
  
  
  S  C   1  -0.15327     0.01241    -0.00606    -0.11289     0.04217    -0.04368
 PX  C   1   0.13223     0.17119    -0.04718    -0.04864     0.15520    -0.18767
 PY  C   1   0.11270    -0.19380     0.08604     0.04283     0.15486    -0.01866
 PZ  C   1   0.00121    -0.01841     0.00378     0.00527     0.02739     0.01812
  
  S  C   2   0.15782    -0.02152     0.03249     0.05667    -0.01107    -0.02211
 PX  C   2   0.04233    -0.20326     0.07191     0.13033    -0.17071     0.18760
 PY  C   2  -0.05878    -0.09423     0.11228    -0.23943    -0.09856    -0.25345
 PZ  C   2  -0.00607    -0.00787     0.00381    -0.01398     0.02200    -0.00919
  
  S  C   3  -0.07497     0.06821     0.06157    -0.18589    -0.09990    -0.03871
 PX  C   3  -0.17260    -0.00737     0.01613    -0.09055     0.24214     0.12382
 PY  C   3   0.00819     0.26797    -0.14298     0.07305     0.00620     0.05719
 PZ  C   3  -0.01099     0.01215    -0.01222     0.00648     0.04987     0.01883
  
  S  C   4   0.06981     0.02190    -0.07985     0.20861    -0.04679     0.03376
 PX  C   4   0.16918     0.20157    -0.07290    -0.07169     0.09149    -0.15590
 PY  C   4   0.08685    -0.17714     0.04080     0.05682     0.20925    -0.04819
 PZ  C   4   0.01362    -0.01008    -0.00583     0.01757     0.05485     0.01534
  
  S  C   5  -0.16621     0.00656    -0.02631    -0.06035    -0.00851     0.05068
 PX  C   5  -0.05533    -0.19511     0.04115     0.20750    -0.10700     0.15204
 PY  C   5  -0.14444    -0.04755     0.08139    -0.16770    -0.21098    -0.20362
 PZ  C   5   0.00303    -0.01910    -0.00179     0.02935     0.03436     0.04218
  
  S  C   6   0.15766    -0.02992     0.00978     0.09792     0.06756     0.03438
 PX  C   6  -0.15588    -0.07486    -0.01860    -0.07394     0.24634     0.14597
 PY  C   6   0.06178     0.22495    -0.11163    -0.00763     0.09145     0.03499
 PZ  C   6  -0.01511    -0.01376    -0.00373     0.00345     0.04409     0.04079
  
  S  C   7  -0.07128     0.04101    -0.04476     0.04008     0.09617    -0.00865
 PX  C   7   0.19020     0.01663    -0.07764     0.20225    -0.15649    -0.10452
 PY  C   7   0.08581     0.09714     0.21003    -0.17280    -0.07373     0.09803
 PZ  C   7   0.01727     0.00323     0.00079     0.01462     0.00266    -0.00226
  
  S  C   8   0.10576    -0.00657     0.00502    -0.07166     0.08318    -0.02661
 PX  C   8  -0.17130     0.03467    -0.17966     0.05296    -0.16155     0.05406
 PY  C   8  -0.07645     0.03746     0.17101    -0.21948    -0.11034     0.07776
 PZ  C   8  -0.01200    -0.01384    -0.00206     0.00769     0.01182     0.01399
  
  S  C   9  -0.14376    -0.16107    -0.14622     0.08332    -0.07835    -0.04669
 PX  C   9   0.03314    -0.09456     0.09116     0.01548     0.07711    -0.06360
 PY  C   9  -0.03502     0.19546    -0.16513     0.03035    -0.07923    -0.03328
 PZ  C   9  -0.01033    -0.02654     0.01061     0.01086     0.01536     0.00127
  
  S  C  10   0.10721    -0.06096     0.24806    -0.03324    -0.08242     0.04521
 PX  C  10   0.04418     0.12565     0.01080    -0.03183    -0.05211     0.01694
 PY  C  10  -0.10700    -0.22624     0.01114     0.02240     0.09740    -0.02413
 PZ  C  10  -0.00406    -0.01275    -0.00097     0.00522     0.01113    -0.00257
  
  S  C  11  -0.10807     0.01285    -0.05742    -0.06322     0.08006     0.02876
 PX  C  11  -0.15812    -0.11050    -0.14882     0.02958     0.13265    -0.02709
 PY  C  11  -0.06700     0.12854     0.27132     0.10960     0.13120     0.10985
 PZ  C  11  -0.00392    -0.01157    -0.00393    -0.00327     0.01355    -0.00857
  
  S  H  12  -0.05827    -0.12793    -0.30250    -0.10000    -0.00646    -0.08240
  
  S  C  13   0.09576     0.04818     0.03601     0.02376     0.08714    -0.00850
 PX  C  13   0.15356    -0.16095    -0.13213    -0.14114     0.13142    -0.12576
 PY  C  13   0.07086     0.06426     0.30988     0.01083     0.04690     0.15512
 PZ  C  13  -0.01567    -0.01343     0.00255     0.01174     0.01372    -0.01010
  
  S  H  14  -0.01410    -0.04314    -0.22507     0.23730     0.03838    -0.12221
  
  S  H  15  -0.20967     0.05678    -0.03854    -0.06314    -0.17146     0.08105
  
  S  H  16   0.13663    -0.03212    -0.04226     0.27015    -0.00135     0.26493
  
  S  H  17  -0.16319     0.04006     0.04057    -0.24917    -0.12120    -0.20127
  
  S  H  18   0.20525     0.04464     0.02252     0.11141    -0.18211    -0.11623
  
  S  H  19   0.05503     0.02694     0.21015    -0.22944     0.01859     0.03160
  
  S  H  20   0.03543     0.14680     0.30833     0.07542     0.02759     0.16194
  
  S  C  21   0.15902    -0.04037     0.00240    -0.05834    -0.01751    -0.03120
 PX  C  21  -0.00883     0.13577    -0.16045    -0.16077     0.10827     0.19733
 PY  C  21  -0.11536     0.15567     0.08382     0.11936     0.17208    -0.23111
 PZ  C  21  -0.00801    -0.01706     0.01716     0.01333     0.03701    -0.03405
  
  S  C  22  -0.15955     0.03870     0.04120     0.08758     0.06788    -0.05934
 PX  C  22  -0.13307     0.08865    -0.04162     0.07536    -0.20545     0.12425
 PY  C  22  -0.00749    -0.22314     0.05081     0.01132    -0.07621     0.04550
 PZ  C  22   0.01751    -0.02168     0.01097    -0.01123     0.06702    -0.03770
  
  S  C  23   0.15582    -0.05140    -0.03360    -0.09855     0.03829     0.04628
 PX  C  23   0.06745    -0.15337     0.08123     0.02245    -0.15885    -0.14412
 PY  C  23   0.16409     0.13459    -0.06531    -0.05073    -0.16662     0.00048
 PZ  C  23  -0.01398     0.01309     0.00178     0.00794     0.05243    -0.01641
  
  S  C  24  -0.16311     0.01672     0.00180     0.06618     0.00327     0.01261
 PX  C  24   0.11914     0.12348    -0.10460    -0.10674     0.17321     0.15180
 PY  C  24  -0.02121     0.17657     0.09955     0.17129     0.05518    -0.26246
 PZ  C  24  -0.01904     0.00934     0.01502     0.02590     0.02904    -0.04092
  
  S  H  25   0.15257    -0.07696    -0.13780    -0.19168    -0.08866     0.25278
  
  S  H  26  -0.18675     0.07798    -0.01043     0.11019    -0.15900     0.08528
  
  S  H  27   0.21789     0.00155    -0.02686    -0.07623    -0.18218    -0.04003
  
  S  H  28  -0.14775     0.08120     0.13344     0.20991    -0.02889    -0.26026
  
  S  C  29  -0.04011     0.11322     0.12367     0.13299    -0.05645    -0.02971
 PX  C  29   0.10224    -0.21606     0.09214     0.06414    -0.09463    -0.18818
 PY  C  29   0.12431     0.10621    -0.11271    -0.04501    -0.21708    -0.02095
 PZ  C  29  -0.02799    -0.00457     0.00997     0.00787     0.05077    -0.00372
  
  S  C  30   0.07336    -0.03869    -0.16931    -0.12848    -0.09786     0.05790
 PX  C  30  -0.15899     0.08813     0.04434     0.06345    -0.21672     0.16674
 PY  C  30  -0.07769    -0.26759     0.03351    -0.03990     0.01438     0.05191
 PZ  C  30  -0.01875    -0.01029     0.00705     0.01122     0.03039    -0.01519




    ROOT NO.   25          26          27          28          29          30

           -14.91285   -14.73723   -14.70804   -14.45215   -13.71175   -13.34201
  
  
  S  C   1  -0.01837     0.05320    -0.00510    -0.00559    -0.05183    -0.02050
 PX  C   1  -0.18727    -0.11631     0.06268     0.08578    -0.06792    -0.02425
 PY  C   1   0.02163     0.08945     0.24124     0.14384     0.01321    -0.12298
 PZ  C   1   0.02291     0.03546    -0.06089     0.10881    -0.13068     0.18666
  
  S  C   2  -0.01261    -0.01141     0.08607     0.05866     0.04544     0.00016
 PX  C   2   0.18294     0.09937    -0.02188    -0.04350     0.09332     0.05427
 PY  C   2  -0.16357     0.10845     0.06400     0.02836     0.01515     0.06515
 PZ  C   2  -0.00264     0.03503    -0.08439     0.13793    -0.14065     0.20784
  
  S  C   3   0.01709    -0.02351    -0.06565    -0.02593    -0.03981    -0.00242
 PX  C   3   0.14137    -0.03903     0.03821     0.00827    -0.12876    -0.16539
 PY  C   3  -0.00644    -0.14244    -0.11219    -0.07507    -0.00045    -0.04379
 PZ  C   3   0.01412     0.02828    -0.15505     0.22187    -0.17068     0.23334
  
  S  C   4  -0.03943    -0.04069    -0.01528     0.00083    -0.01750    -0.01485
 PX  C   4  -0.11017     0.06609    -0.02561    -0.04935    -0.15311    -0.11450
 PY  C   4  -0.01635     0.12776     0.17147     0.07212    -0.13579    -0.13541
 PZ  C   4   0.01470     0.04876    -0.14593     0.21771    -0.17870     0.23096
  
  S  C   5   0.05437     0.06436    -0.03010    -0.03406     0.01854     0.01500
 PX  C   5   0.07021    -0.09926     0.05567     0.05786     0.15632     0.08042
 PY  C   5  -0.13478     0.11218     0.15891     0.14404     0.09514     0.03362
 PZ  C   5   0.03550     0.01838    -0.09490     0.12760    -0.14038     0.20324
  
  S  C   6   0.02214    -0.03342     0.03073     0.02833    -0.02994    -0.02873
 PX  C   6   0.18146     0.15292    -0.02024    -0.10462    -0.09517    -0.14218
 PY  C   6   0.00152    -0.10232    -0.20696    -0.14969    -0.10258     0.02080
 PZ  C   6   0.04491     0.03961    -0.07729     0.08829    -0.14172     0.17631
  
  S  C   7  -0.05620    -0.05945     0.01338     0.00749     0.03102     0.00373
 PX  C   7  -0.16001     0.00828     0.02244    -0.01329     0.17348     0.13507
 PY  C   7   0.20586    -0.19486     0.13876     0.14529     0.13060     0.01073
 PZ  C   7  -0.00391     0.03036    -0.14439     0.22042    -0.06267     0.14154
  
  S  C   8   0.01412     0.02777    -0.04634    -0.04164     0.00438     0.02136
 PX  C   8   0.00037     0.23596    -0.02622    -0.06775     0.21591     0.11010
 PY  C   8   0.11056    -0.28322    -0.13030    -0.04986     0.12127     0.11736
 PZ  C   8   0.00822     0.04472    -0.15721     0.20152    -0.06645     0.13567
  
  S  C   9  -0.02117     0.01711     0.00804    -0.00791    -0.00781     0.00128
 PX  C   9  -0.01224    -0.27013     0.03267     0.06086    -0.21557    -0.11502
 PY  C   9   0.00786    -0.15182    -0.02225     0.04715    -0.05072    -0.10965
 PZ  C   9  -0.00814     0.05025    -0.21138     0.25967    -0.01649     0.01820
  
  S  C  10   0.00395    -0.01771    -0.02617     0.01030    -0.02753    -0.00004
 PX  C  10  -0.05625     0.14924    -0.16275    -0.16674    -0.17768    -0.13744
 PY  C  10  -0.05959     0.10077    -0.04959    -0.08904    -0.15017    -0.02463
 PZ  C  10  -0.00660     0.06928    -0.21407     0.24633    -0.03412     0.01219
  
  S  C  11   0.04683     0.05017    -0.00486    -0.00710     0.00864    -0.00380
 PX  C  11   0.04014    -0.13469     0.16341     0.13538     0.19082     0.14290
 PY  C  11  -0.27055     0.02779    -0.09485    -0.10002     0.14651     0.10741
 PZ  C  11   0.00545     0.04138    -0.16269     0.19045     0.06341    -0.11511
  
  S  H  12   0.24043    -0.04667     0.13662     0.12564    -0.04113    -0.03368
  
  S  C  13  -0.00968    -0.00203     0.05637     0.05374    -0.01597    -0.01296
 PX  C  13   0.08608    -0.02335    -0.07317    -0.08506     0.19306     0.17990
 PY  C  13  -0.04903     0.30567     0.04795    -0.01558     0.05837     0.06831
 PZ  C  13  -0.01378     0.02419    -0.17810     0.20174     0.07368    -0.11421
  
  S  H  14  -0.24224     0.12578    -0.08548    -0.10805    -0.00719     0.05804
  
  S  H  15   0.06443     0.01619    -0.21149    -0.16340     0.01414     0.09206
  
  S  H  16   0.19642    -0.04080    -0.01705    -0.01963     0.06009    -0.02916
  
  S  H  17  -0.10939     0.15526     0.09819     0.06725     0.03414    -0.01382
  
  S  H  18  -0.15683    -0.16038     0.04433     0.10105     0.09434     0.10195
  
  S  H  19   0.09183    -0.29549    -0.10604    -0.03536     0.01806     0.05990
  
  S  H  20  -0.07220     0.23040     0.09700     0.04184    -0.05530    -0.03225
  
  S  C  21   0.02157     0.03727    -0.08017    -0.05511    -0.01816    -0.02469
 PX  C  21  -0.06700     0.10813     0.01797     0.01017     0.17511     0.03994
 PY  C  21   0.27276     0.11265     0.04286    -0.02186     0.10098     0.12896
 PZ  C  21  -0.00398     0.00819    -0.12783     0.10705     0.16962    -0.18325
  
  S  C  22   0.01324    -0.04212     0.01945     0.00466     0.04094     0.03211
 PX  C  22  -0.06581    -0.07653     0.15269     0.19148    -0.11765    -0.08954
 PY  C  22  -0.20953    -0.16478    -0.09956    -0.05262    -0.08603    -0.09732
 PZ  C  22  -0.00288     0.01916    -0.13685     0.05254     0.19982    -0.17171
  
  S  C  23  -0.02932     0.03820    -0.03355    -0.01924     0.05823     0.01249
 PX  C  23   0.10970     0.07127    -0.20885    -0.13332    -0.02387    -0.10146
 PY  C  23   0.20898     0.18960     0.06598     0.06992    -0.02945     0.00212
 PZ  C  23  -0.01728    -0.00557    -0.09221     0.10210     0.18100    -0.18624
  
  S  C  24  -0.07316    -0.09570     0.01454     0.01254    -0.04090    -0.01967
 PX  C  24  -0.08229    -0.01115     0.17805     0.12657     0.08032     0.09778
 PY  C  24   0.18843    -0.02319    -0.00172    -0.02496     0.03698     0.02034
 PZ  C  24   0.00007    -0.00011    -0.12727     0.12066     0.16667    -0.20922
  
  S  H  25  -0.22591    -0.02117    -0.05220    -0.00942    -0.02190    -0.08986
  
  S  H  26  -0.06198    -0.10339     0.16264     0.16343    -0.13543    -0.04806
  
  S  H  27   0.20030     0.20231    -0.05328    -0.02797    -0.03065    -0.02438
  
  S  H  28   0.14111    -0.05207    -0.08716    -0.06600    -0.02298    -0.06139
  
  S  C  29   0.00830     0.01168     0.04549     0.03427     0.01231     0.01654
 PX  C  29   0.07554    -0.09287    -0.07284    -0.02739    -0.17049    -0.06462
 PY  C  29   0.18766     0.08414     0.04449     0.10065    -0.14221    -0.17280
 PZ  C  29  -0.02829     0.02991    -0.18660     0.19991     0.19552    -0.20828
  
  S  C  30   0.05011     0.03309     0.00833     0.01419     0.04022     0.01823
 PX  C  30  -0.06735     0.06770     0.04465     0.07250    -0.17087    -0.17169
 PY  C  30  -0.14672    -0.06077    -0.09921    -0.09648    -0.03247     0.03503
 PZ  C  30  -0.02274     0.02088    -0.19722     0.20660     0.17634    -0.22836




    ROOT NO.   31          32          33          34          35          36

           -13.04759   -12.85221   -12.19940   -11.90301   -11.80148   -11.24286
  
  
  S  C   1  -0.01313     0.00602     0.00562     0.00722    -0.01921    -0.01901
 PX  C   1   0.16934     0.21153    -0.00250    -0.06629    -0.01215    -0.11432
 PY  C   1  -0.20059     0.13960     0.17234     0.17107     0.01504    -0.07174
 PZ  C   1  -0.11055     0.04614    -0.09396     0.04956    -0.30730    -0.04677
  
  S  C   2  -0.02481     0.00885    -0.01229    -0.03348     0.01012     0.04425
 PX  C   2  -0.16879    -0.21451    -0.03176     0.02963    -0.00038     0.14482
 PY  C   2   0.09138    -0.12871    -0.16573    -0.19966     0.00952     0.14113
 PZ  C   2  -0.07348     0.05478    -0.08824     0.01740    -0.22184    -0.04692
  
  S  C   3  -0.00955    -0.02913     0.00559     0.00464    -0.00611    -0.01986
 PX  C   3   0.07152     0.22673     0.03785    -0.14693     0.02361    -0.17892
 PY  C   3  -0.03613     0.08198     0.18380     0.29964    -0.00569    -0.13318
 PZ  C   3  -0.07093     0.08469    -0.01601     0.02809    -0.04000    -0.04534
  
  S  C   4   0.02754     0.03898     0.00794    -0.00394    -0.01021     0.01832
 PX  C   4  -0.15431    -0.18001     0.06762     0.18342    -0.02668     0.15776
 PY  C   4   0.00947    -0.01324    -0.11732    -0.27729     0.00153     0.14878
 PZ  C   4  -0.07647     0.04109    -0.05362    -0.00491    -0.04502     0.02423
  
  S  C   5  -0.01550    -0.01540    -0.01713    -0.04175     0.00660    -0.02210
 PX  C   5   0.16101     0.20753    -0.04129    -0.15272     0.03162    -0.15183
 PY  C   5  -0.14946     0.11051     0.11460     0.15426    -0.01924    -0.08285
 PZ  C   5  -0.07086     0.04601    -0.10429    -0.00454    -0.22024    -0.00834
  
  S  C   6  -0.01566     0.02677     0.01317     0.01295    -0.01457     0.00520
 PX  C   6  -0.17588    -0.16955     0.05691     0.08264     0.03327     0.09424
 PY  C   6   0.18643    -0.14326    -0.14773    -0.16251     0.00200     0.10057
 PZ  C   6  -0.11421     0.01771    -0.10540     0.03748    -0.30425    -0.01315
  
  S  C   7   0.02274     0.07329     0.01609    -0.03321    -0.00257     0.01751
 PX  C   7  -0.07732    -0.18264    -0.03193     0.11743    -0.03024     0.19824
 PY  C   7  -0.18051     0.03050    -0.03039    -0.17339    -0.00698     0.15323
 PZ  C   7  -0.03959     0.00748     0.04948     0.00397     0.15507     0.02779
  
  S  C   8  -0.02755    -0.06483    -0.01525    -0.06510     0.01967    -0.01499
 PX  C   8  -0.08726     0.09568     0.02128    -0.13193     0.02661    -0.21936
 PY  C   8   0.10407     0.02330     0.05697     0.20658     0.00078    -0.12387
 PZ  C   8  -0.01121     0.01081     0.03004    -0.00725     0.16364     0.02697
  
  S  C   9   0.04868     0.04438     0.00668     0.00513    -0.02691     0.01613
 PX  C   9   0.11939    -0.04659    -0.00735     0.18518    -0.05099     0.22172
 PY  C   9  -0.25130     0.11885     0.12356    -0.21124    -0.03876     0.15973
 PZ  C   9   0.04629    -0.03176     0.10337    -0.00321     0.31442     0.05689
  
  S  C  10   0.01000    -0.06412     0.00125    -0.01008     0.00393    -0.00292
 PX  C  10  -0.10555     0.06629     0.11657    -0.15755    -0.03218    -0.23230
 PY  C  10   0.29012    -0.03281    -0.04686     0.23591     0.00432    -0.14802
 PZ  C  10   0.02891    -0.02121     0.12342    -0.01907     0.29996     0.00512
  
  S  C  11   0.02093     0.07271     0.05339    -0.03840    -0.00832    -0.00346
 PX  C  11   0.11223    -0.01503    -0.08314     0.14306     0.00972     0.23719
 PY  C  11  -0.07222     0.06002     0.15966    -0.07684    -0.05010     0.11988
 PZ  C  11   0.05107    -0.03982     0.07648    -0.01683     0.11676     0.00011
  
  S  H  12   0.12282    -0.02011    -0.16886     0.13548     0.05128    -0.00567
  
  S  C  13  -0.03670    -0.06994     0.01562    -0.04617     0.00563     0.01137
 PX  C  13  -0.05636    -0.14074     0.05315    -0.07167     0.03982    -0.22922
 PY  C  13   0.16819    -0.06115    -0.13278     0.10574     0.05791    -0.15625
 PZ  C  13   0.04200    -0.04506     0.06901    -0.01232     0.14447     0.05276
  
  S  H  14   0.12201    -0.07999     0.01485     0.21845    -0.00477    -0.02921
  
  S  H  15   0.07474    -0.23279    -0.13559    -0.10826     0.01053     0.12642
  
  S  H  16  -0.16667     0.00491     0.12770     0.18954     0.00188    -0.03297
  
  S  H  17  -0.20380    -0.01204     0.12584     0.20769    -0.01097    -0.01451
  
  S  H  18   0.17707     0.17856    -0.03605    -0.07950    -0.00142    -0.09689
  
  S  H  19   0.11333    -0.05436     0.03098     0.23922    -0.00322    -0.02835
  
  S  H  20   0.14701    -0.01573    -0.14801     0.12575     0.03658    -0.02227
  
  S  C  21  -0.00842     0.01884     0.03476    -0.02289    -0.01600    -0.03626
 PX  C  21   0.01460     0.21319    -0.13710     0.09249     0.03558     0.18759
 PY  C  21   0.14312     0.01739     0.16533    -0.01336    -0.07419     0.08838
 PZ  C  21   0.02337    -0.04181    -0.04713     0.00076    -0.22389    -0.03210
  
  S  C  22  -0.02170    -0.00944    -0.01814     0.00434     0.00981     0.01183
 PX  C  22   0.06337    -0.24860     0.08472    -0.05398    -0.11545    -0.12947
 PY  C  22  -0.20239     0.00833    -0.19378     0.01317     0.12006    -0.09464
 PZ  C  22  -0.01150     0.01988    -0.13803     0.02792    -0.26939    -0.03600
  
  S  C  23  -0.00784     0.01237    -0.02501     0.00401    -0.00321    -0.01832
 PX  C  23  -0.01007     0.26500    -0.06415     0.05372    -0.01507     0.14151
 PY  C  23   0.22979    -0.01861     0.21825    -0.02446    -0.15080     0.06411
 PZ  C  23  -0.01137    -0.06447    -0.14221     0.01387    -0.27832    -0.10456
  
  S  C  24  -0.02870    -0.00670     0.03309    -0.01274    -0.01953     0.03867
 PX  C  24   0.00143    -0.25816     0.00407    -0.04274     0.02212    -0.17938
 PY  C  24  -0.15194    -0.02367    -0.23939     0.02979     0.17077    -0.13397
 PZ  C  24  -0.00650    -0.05347    -0.12008     0.01263    -0.19583    -0.07399
  
  S  H  25  -0.11442     0.10855    -0.20522     0.05699     0.09785     0.00773
  
  S  H  26   0.04072    -0.24975     0.08876    -0.05645    -0.05352    -0.13076
  
  S  H  27   0.18866     0.13335     0.16251     0.00837    -0.11184     0.14180
  
  S  H  28  -0.13601     0.10634    -0.20956     0.05070     0.11728    -0.00904
  
  S  C  29  -0.01272    -0.04544    -0.01752    -0.00329     0.00412     0.00760
 PX  C  29   0.00135    -0.19283     0.17249    -0.10643    -0.06234    -0.19355
 PY  C  29   0.01700    -0.00880    -0.23726     0.07711     0.09302    -0.13610
 PZ  C  29   0.05970    -0.05178     0.04242    -0.01339    -0.07134     0.03039
  
  S  C  30   0.02095     0.02751    -0.00412     0.00059    -0.00537    -0.01383
 PX  C  30   0.11114     0.17354    -0.05921     0.09826    -0.04314     0.21760
 PY  C  30   0.07227     0.04175     0.31293    -0.08269    -0.16019     0.12481
 PZ  C  30   0.04705    -0.06738     0.01819    -0.01149    -0.04735     0.01498




    ROOT NO.   37          38          39          40          41          42

           -10.60573    -9.96641    -9.60409    -8.33215    -8.11796    -6.74921
  
  
  S  C   1  -0.00144    -0.01914     0.01257     0.01642     0.01677     0.01462
 PX  C   1   0.01210    -0.02241    -0.00475    -0.00100     0.01519     0.00064
 PY  C   1   0.01520     0.02192    -0.01757    -0.00964    -0.01738    -0.00700
 PZ  C   1  -0.07644    -0.31572     0.22646     0.22188     0.25545     0.18244
  
  S  C   2   0.00910     0.00322    -0.02205    -0.02658     0.00183    -0.01642
 PX  C   2  -0.02088     0.01093     0.01929     0.01327    -0.00960     0.00909
 PY  C   2  -0.00114     0.00245    -0.01633    -0.02406     0.00113    -0.01264
 PZ  C   2  -0.18179    -0.09648     0.35521     0.35562    -0.02976     0.21358
  
  S  C   3   0.00536     0.00368    -0.00358     0.00025    -0.00238    -0.00545
 PX  C   3   0.02298    -0.01430    -0.01350    -0.00292     0.02738    -0.00344
 PY  C   3   0.03211    -0.01636    -0.02827    -0.00941     0.02240     0.00692
 PZ  C   3  -0.20498     0.27020     0.19355     0.05687    -0.37100    -0.14068
  
  S  C   4  -0.00407    -0.00242     0.00674     0.00338     0.00894     0.00116
 PX  C   4  -0.01129     0.00469     0.00936    -0.00018     0.01350    -0.00390
 PY  C   4  -0.02883    -0.00594     0.03081     0.00609     0.02472    -0.00948
 PZ  C   4   0.19881     0.23756    -0.27672    -0.04306    -0.36019     0.12391
  
  S  C   5   0.00372    -0.00074    -0.00706    -0.00736    -0.00482    -0.00574
 PX  C   5  -0.00633    -0.00927     0.01736     0.01618     0.00190     0.00714
 PY  C   5   0.02632    -0.00829    -0.02942    -0.02067    -0.00178    -0.00965
 PZ  C   5   0.19558    -0.12647    -0.33635    -0.35885     0.00838    -0.21773
  
  S  C   6   0.00222    -0.01372    -0.00325    -0.00991     0.01546    -0.00958
 PX  C   6  -0.01696     0.04613     0.01725     0.02279    -0.02933     0.01459
 PY  C   6  -0.01859    -0.00019     0.01796     0.01095     0.00485     0.00640
 PZ  C   6   0.10063    -0.32912    -0.14387    -0.23717     0.28209    -0.17543
  
  S  C   7   0.00984    -0.00905    -0.00528     0.00303     0.00466     0.01362
 PX  C   7   0.01661    -0.02049    -0.01241     0.01327    -0.00461     0.03537
 PY  C   7   0.01067    -0.01132     0.00097     0.01561     0.00031     0.02166
 PZ  C   7  -0.34353     0.22861     0.19305    -0.20863     0.01786    -0.36256
  
  S  C   8   0.01231     0.00677    -0.00502     0.01545    -0.00342     0.01512
 PX  C   8   0.00108    -0.02422     0.00407    -0.00878    -0.00467    -0.02367
 PY  C   8   0.00170    -0.01211    -0.00378    -0.01056    -0.00358    -0.01019
 PZ  C   8   0.32528     0.18658    -0.23443     0.21899     0.01035     0.37949
  
  S  C   9  -0.00485     0.00396     0.00033    -0.00748    -0.00767    -0.00166
 PX  C   9  -0.01710     0.02022     0.00215    -0.00473    -0.00306     0.01184
 PY  C   9   0.00272     0.01709     0.00241     0.00328     0.02318     0.00978
 PZ  C   9   0.27197     0.01314    -0.00736     0.22042     0.36412     0.03415
  
  S  C  10  -0.02024     0.00589     0.00297    -0.00731     0.01755    -0.00475
 PX  C  10   0.03334     0.00497    -0.01109     0.02143    -0.02718    -0.01220
 PY  C  10   0.01163    -0.00139    -0.00734     0.00312    -0.01534    -0.00680
 PZ  C  10  -0.27624     0.03047     0.02655    -0.22491     0.37185    -0.01061
  
  S  C  11  -0.01084    -0.00751    -0.00412    -0.01619    -0.00227     0.02547
 PX  C  11  -0.02046    -0.00635     0.00955    -0.01623     0.01370     0.01555
 PY  C  11  -0.01286     0.00061     0.00229    -0.01902     0.00792     0.02266
 PZ  C  11  -0.34303    -0.23269    -0.17879    -0.21295     0.00074     0.38917
  
  S  H  12   0.00334    -0.00715     0.00320     0.00862    -0.00610    -0.01582
  
  S  C  13   0.01298    -0.00992     0.00854     0.00768    -0.00097    -0.00920
 PX  C  13   0.01216    -0.02495     0.00014     0.00123    -0.01166    -0.01015
 PY  C  13   0.01051    -0.01849     0.00204     0.00490    -0.01116    -0.01462
 PZ  C  13   0.34528    -0.20367     0.21037     0.19350    -0.00546    -0.37136
  
  S  H  14  -0.00224    -0.00187    -0.00669    -0.01043    -0.00363    -0.00336
  
  S  H  15  -0.01652     0.01447     0.00683    -0.00123    -0.01331    -0.00359
  
  S  H  16  -0.00352     0.00885     0.01114     0.01598    -0.00828     0.01083
  
  S  H  17   0.01311     0.00810    -0.01238    -0.00154    -0.00827     0.00376
  
  S  H  18   0.00612    -0.01125    -0.00141     0.00318    -0.00153     0.00512
  
  S  H  19  -0.00325    -0.00331    -0.00152    -0.00863    -0.00426    -0.00696
  
  S  H  20  -0.00540    -0.00425    -0.00421     0.00043    -0.00738     0.00207
  
  S  C  21  -0.00361    -0.00202    -0.01250     0.01148    -0.00797    -0.00604
 PX  C  21  -0.01740    -0.00424    -0.00701     0.01042     0.00570    -0.00940
 PY  C  21   0.01552     0.01263     0.02077    -0.01430     0.00428     0.00633
 PZ  C  21  -0.21287     0.07357    -0.35023     0.35888     0.01725    -0.23447
  
  S  C  22  -0.00484     0.00419    -0.00603     0.00861     0.00853    -0.00849
 PX  C  22  -0.01617     0.06925    -0.04343     0.04604     0.04099    -0.03225
 PY  C  22  -0.01132    -0.03147    -0.01309     0.00717    -0.01354    -0.00258
 PZ  C  22  -0.09955     0.31006    -0.20208     0.24415     0.23460    -0.19279
  
  S  C  23   0.01221     0.01835     0.01762    -0.01972     0.01156     0.01531
 PX  C  23   0.00731     0.02871     0.02391    -0.02911     0.01450     0.02546
 PY  C  23   0.01268     0.03893     0.01131    -0.00769     0.01141     0.00475
 PZ  C  23   0.10169     0.36495     0.15971    -0.21015     0.20808     0.19402
  
  S  C  24  -0.00540     0.00744    -0.00563     0.00655     0.00247    -0.00555
 PX  C  24   0.00625    -0.01062    -0.00343     0.00434    -0.00494    -0.00521
 PY  C  24  -0.02863    -0.04866    -0.03883     0.03136    -0.00496    -0.01608
 PZ  C  24   0.20304     0.16008     0.31780    -0.33701    -0.02573     0.22105
  
  S  H  25  -0.00828    -0.02356    -0.00023    -0.00557    -0.00884     0.00680
  
  S  H  26  -0.00124     0.01177    -0.01187     0.00699    -0.00119    -0.00045
  
  S  H  27   0.00904     0.01546     0.01260    -0.00625    -0.00396     0.00075
  
  S  H  28  -0.01441    -0.02777    -0.00896     0.00079    -0.00853     0.00492
  
  S  C  29   0.00271     0.00939     0.00369     0.00362     0.01289    -0.01022
 PX  C  29  -0.00079    -0.00329    -0.01652     0.00303    -0.01620     0.00893
 PY  C  29  -0.02017    -0.03945    -0.02741     0.01350    -0.03004     0.00197
 PZ  C  29  -0.23276    -0.30951    -0.21664     0.02263    -0.30663     0.15377
  
  S  C  30  -0.00742     0.01394    -0.00885    -0.00000     0.01625     0.00795
 PX  C  30  -0.00476     0.02031     0.00633    -0.00084     0.00616     0.00138
 PY  C  30   0.01214     0.04501     0.01498    -0.01367     0.01761     0.01055
 PZ  C  30   0.21649    -0.26774     0.23437    -0.04629    -0.33226    -0.17144




    ROOT NO.   43          44          45          46          47          48

            -0.98706     0.27816     0.34009     1.21835     1.44568     1.75700
  
  
  S  C   1  -0.00823     0.03389    -0.00998    -0.00085     0.05082     0.00698
 PX  C   1  -0.00285     0.00064     0.00297    -0.00732    -0.00632     0.00242
 PY  C   1   0.01460    -0.00144     0.02039    -0.01616    -0.00667     0.00954
 PZ  C   1  -0.17699     0.19746    -0.28167     0.21931     0.32224    -0.08979
  
  S  C   2  -0.01076    -0.02212    -0.02452     0.03515    -0.01381    -0.02198
 PX  C   2   0.00467     0.00796    -0.00228     0.00620     0.01262    -0.00055
 PY  C   2  -0.00845    -0.00726    -0.01993     0.02341     0.00395    -0.01117
 PZ  C   2   0.21612     0.10422     0.34185    -0.33239    -0.11589     0.20098
  
  S  C   3  -0.00286     0.00728     0.01142    -0.02921     0.01004     0.01617
 PX  C   3  -0.02123     0.02154    -0.00850    -0.00897     0.01966     0.00270
 PY  C   3  -0.01109     0.02278    -0.00746    -0.00798     0.01664     0.01534
 PZ  C   3   0.12892    -0.38533     0.02938     0.18738    -0.26175    -0.22883
  
  S  C   4   0.00187    -0.01002     0.00257     0.01784    -0.00885    -0.02891
 PX  C   4   0.00361    -0.01134     0.01474    -0.01225    -0.00287     0.00985
 PY  C   4  -0.00456    -0.01837     0.01152    -0.01347    -0.00515     0.00537
 PZ  C   4   0.13474     0.33472    -0.13905     0.27221     0.22731    -0.21920
  
  S  C   5   0.00738     0.01599     0.01169    -0.02155     0.02423     0.02777
 PX  C   5  -0.01624    -0.00788    -0.02505     0.01675    -0.01207    -0.00674
 PY  C   5   0.00618    -0.00103     0.01115    -0.01119    -0.00408     0.00722
 PZ  C   5   0.21821     0.11253     0.34650    -0.31387     0.12464     0.21644
  
  S  C   6  -0.01062    -0.03457    -0.00628     0.00890    -0.04833    -0.01615
 PX  C   6   0.01902     0.02506     0.01782    -0.01166     0.02199     0.00763
 PY  C   6  -0.00439     0.00542    -0.00800     0.00834     0.01046    -0.00661
 PZ  C   6  -0.18765    -0.33793    -0.16097     0.12671    -0.32584    -0.10863
  
  S  C   7   0.01081    -0.01373    -0.00421     0.02383    -0.01569    -0.00205
 PX  C   7   0.03512    -0.00018     0.01798     0.00881    -0.01743    -0.01175
 PY  C   7   0.01944    -0.00679     0.00576     0.00917    -0.01073    -0.00012
 PZ  C   7  -0.35240    -0.05611    -0.19445    -0.17426     0.23079     0.34977
  
  S  C   8  -0.01950    -0.00022    -0.01122    -0.01808    -0.01025     0.02488
 PX  C   8   0.01494     0.00219     0.01150     0.01119     0.00415    -0.02358
 PY  C   8   0.00730    -0.00013     0.00258     0.00541     0.00027    -0.00757
 PZ  C   8  -0.37437    -0.05071    -0.21321    -0.21529    -0.17048     0.33110
  
  S  C   9   0.00279    -0.00759    -0.00697     0.00525     0.00597     0.01191
 PX  C   9  -0.00781     0.00008    -0.01282    -0.00474    -0.00219     0.02146
 PY  C   9  -0.00245     0.00335     0.01432    -0.00466     0.00194    -0.02307
 PZ  C   9   0.02367    -0.28270     0.32553    -0.00731     0.01670    -0.27599
  
  S  C  10  -0.00551     0.03288     0.01876    -0.01504     0.00454    -0.04559
 PX  C  10  -0.01220    -0.02161    -0.00535    -0.00728     0.00747    -0.00163
 PY  C  10  -0.00280    -0.01055    -0.00374     0.00282    -0.00211    -0.00035
 PZ  C  10   0.01278     0.42400     0.12935     0.02591    -0.04897    -0.28015
  
  S  C  11   0.02171    -0.02448    -0.01609     0.02962    -0.00560     0.05964
 PX  C  11   0.01081     0.00846     0.00689     0.00770    -0.00146    -0.00075
 PY  C  11   0.01198    -0.00560    -0.00077     0.01079     0.00073     0.01302
 PZ  C  11   0.38910    -0.07092    -0.21257     0.18259    -0.21853     0.32013
  
  S  H  12  -0.01588     0.01144     0.00730    -0.01960     0.00485    -0.03605
  
  S  C  13   0.00932     0.00696    -0.00757     0.00123    -0.00753     0.00792
 PX  C  13  -0.00014     0.00550    -0.00335    -0.00265    -0.00916    -0.00333
 PY  C  13   0.00758    -0.00280    -0.00619     0.00698     0.00406     0.01125
 PZ  C  13   0.37698    -0.07492    -0.18237     0.21964     0.20349     0.31425
  
  S  H  14  -0.00256     0.00683    -0.00378    -0.00868     0.00874     0.00986
  
  S  H  15   0.00771    -0.01805     0.00695     0.00117    -0.03015    -0.00425
  
  S  H  16   0.00946     0.01223     0.01602    -0.02162     0.00623     0.01640
  
  S  H  17  -0.00046    -0.00519    -0.00768     0.01572    -0.01372    -0.01792
  
  S  H  18   0.00464     0.02225     0.00105    -0.00332     0.03126     0.00931
  
  S  H  19   0.01165     0.00354     0.00313     0.01352     0.00791    -0.01323
  
  S  H  20  -0.00912    -0.00232     0.00202    -0.00315    -0.00073    -0.00245
  
  S  C  21  -0.01388    -0.00842     0.01874     0.02978     0.02025     0.03135
 PX  C  21  -0.01490     0.01062     0.02643     0.02377     0.00452     0.00552
 PY  C  21   0.00223    -0.00284    -0.00268    -0.00578     0.00616    -0.00478
 PZ  C  21  -0.22617     0.07364     0.33199     0.36820     0.05591     0.20014
  
  S  C  22   0.00896     0.01709    -0.01567    -0.01741    -0.03836    -0.01674
 PX  C  22   0.03491     0.01878    -0.04963    -0.03572    -0.04055    -0.01338
 PY  C  22  -0.00931     0.00241     0.01008     0.01382    -0.00643     0.01201
 PZ  C  22   0.20819     0.14771    -0.30232    -0.21980    -0.30168    -0.08981
  
  S  C  23   0.01600    -0.02764    -0.00895    -0.01262     0.05662    -0.00790
 PX  C  23   0.01189    -0.02323    -0.00748    -0.01371     0.03497    -0.00834
 PY  C  23   0.00646    -0.00382    -0.00646    -0.00777     0.00450    -0.00607
 PZ  C  23   0.18727    -0.24833    -0.12571    -0.16215     0.36675    -0.09712
  
  S  C  24  -0.00295     0.01761    -0.00808    -0.00872    -0.03532    -0.00437
 PX  C  24  -0.00816     0.00817     0.01297     0.01699    -0.01765     0.00966
 PY  C  24   0.01687    -0.01128    -0.01601    -0.01748     0.01924    -0.01170
 PZ  C  24  -0.22455     0.07485     0.31447     0.33489    -0.17611     0.19144
  
  S  H  25   0.00203    -0.00109    -0.00670    -0.01539    -0.00713    -0.01574
  
  S  H  26  -0.00617    -0.01173     0.01196     0.01474     0.02565     0.01385
  
  S  H  27  -0.01445     0.01648     0.01190     0.01442    -0.03594     0.00953
  
  S  H  28  -0.00454    -0.00994     0.01017     0.00964     0.01842     0.00642
  
  S  C  29   0.00690     0.02452    -0.01146    -0.02584    -0.02343    -0.03617
 PX  C  29   0.00223    -0.01745    -0.00972    -0.01670     0.00705    -0.00965
 PY  C  29  -0.00535    -0.01528    -0.00770    -0.01212     0.00488     0.00047
 PZ  C  29  -0.16874    -0.28924     0.07150    -0.23846     0.32742    -0.23013
  
  S  C  30   0.00639    -0.02264     0.01490     0.01828     0.03285     0.00963
 PX  C  30   0.00356    -0.00304    -0.00297     0.00357     0.00921     0.01003
 PY  C  30   0.00576    -0.00347     0.00025    -0.00067     0.00563    -0.00483
 PZ  C  30  -0.16777     0.30695    -0.14335    -0.25279    -0.27329    -0.19743




    ROOT NO.   49          50          51          52          53          54

             2.43529     2.44099     2.83153     3.13369     3.34621     3.40835
  
  
  S  C   1   0.08255     0.09386    -0.17012    -0.00078     0.21171    -0.12236
 PX  C   1   0.03076    -0.01128    -0.01743     0.04011     0.01159    -0.06278
 PY  C   1   0.01495     0.00519    -0.02910    -0.00935     0.02296     0.05764
 PZ  C   1  -0.10193     0.30809    -0.01279    -0.22034    -0.06320    -0.05048
  
  S  C   2  -0.15440    -0.05200     0.20849    -0.09042    -0.21042     0.19136
 PX  C   2  -0.03663     0.01325     0.01208    -0.03508     0.02630     0.01711
 PY  C   2  -0.05515    -0.00108     0.04336    -0.03492    -0.00925     0.02384
 PZ  C   2   0.03589    -0.25192     0.07443     0.21995     0.00781     0.08514
  
  S  C   3   0.24723     0.07222    -0.26911     0.12293     0.13793    -0.15474
 PX  C   3   0.00994    -0.01123     0.05993     0.02543    -0.07900    -0.08696
 PY  C   3   0.02824     0.00979    -0.02074    -0.00386    -0.04669     0.13435
 PZ  C   3   0.01525     0.08854    -0.08685    -0.28352    -0.01161    -0.07094
  
  S  C   4  -0.24638    -0.09277     0.29372    -0.03557    -0.06852    -0.22074
 PX  C   4  -0.03924     0.01170    -0.01098    -0.04089     0.05322     0.06073
 PY  C   4   0.00987     0.01045    -0.05246     0.03489     0.09876    -0.13315
 PZ  C   4   0.00667    -0.07599     0.04808     0.29014     0.02648     0.07624
  
  S  C   5   0.14889     0.10157    -0.24332    -0.02839     0.13343     0.22883
 PX  C   5   0.07379    -0.00323    -0.05754     0.03833    -0.01646     0.06212
 PY  C   5   0.00091    -0.00455     0.00882     0.00111    -0.02689     0.01063
 PZ  C   5  -0.08860     0.21941    -0.00314    -0.23733    -0.05347    -0.07111
  
  S  C   6  -0.08004    -0.10855     0.18508     0.05688    -0.17231    -0.10472
 PX  C   6  -0.03671     0.00948     0.03870    -0.02325    -0.03106    -0.00694
 PY  C   6  -0.02233     0.00268     0.01870     0.00349     0.02770    -0.10374
 PZ  C   6   0.12051    -0.29378    -0.01068     0.21963     0.06901     0.07017
  
  S  C   7  -0.23803    -0.05099     0.12732    -0.10128     0.08212     0.25609
 PX  C   7   0.01830     0.00643    -0.09724     0.01872     0.11643     0.01140
 PY  C   7  -0.04099    -0.00327    -0.03144    -0.00030     0.08551     0.02914
 PZ  C   7  -0.07115     0.12934     0.06033     0.14101    -0.00096     0.02720
  
  S  C   8   0.23589     0.06308    -0.15455    -0.01621    -0.18472     0.23260
 PX  C   8   0.01897     0.00418     0.06958    -0.01016    -0.13385    -0.02150
 PY  C   8  -0.03723    -0.01512     0.06433    -0.00985    -0.04249    -0.03113
 PZ  C   8   0.04581    -0.14601     0.00067    -0.13812     0.00285    -0.06260
  
  S  C   9  -0.25884    -0.05951     0.01129     0.03144     0.38962    -0.12047
 PX  C   9  -0.00915    -0.00326    -0.08241     0.00143     0.03206     0.08712
 PY  C   9   0.03052    -0.00238    -0.03352     0.02756    -0.07025    -0.14196
 PZ  C   9  -0.13523     0.32353    -0.01402     0.01121    -0.00328     0.01229
  
  S  C  10   0.27855     0.02846     0.01452     0.03263    -0.32947    -0.24694
 PX  C  10  -0.00088     0.01131     0.08430    -0.01399     0.03870    -0.07380
 PY  C  10   0.02304     0.01356     0.03458    -0.03510    -0.11588     0.10767
 PZ  C  10   0.08504    -0.31324    -0.02441    -0.02298     0.04878     0.04339
  
  S  C  11  -0.26073    -0.03754    -0.15769     0.02278     0.10633     0.26958
 PX  C  11   0.03711    -0.00803    -0.06803     0.02732    -0.14409    -0.05262
 PY  C  11  -0.02909    -0.01111    -0.05969     0.01737    -0.06500    -0.01442
 PZ  C  11  -0.01665     0.13443    -0.00715    -0.13593    -0.00992    -0.07785
  
  S  H  12   0.15475     0.02140     0.10243    -0.02690    -0.08997    -0.15006
  
  S  C  13   0.22671     0.06559     0.12963    -0.08002    -0.15323     0.22873
 PX  C  13   0.00946     0.01366     0.08782    -0.03265     0.12319     0.02402
 PY  C  13  -0.04154    -0.01134     0.02695     0.00217     0.09448    -0.00178
 PZ  C  13   0.09261    -0.14826     0.05324     0.14500    -0.00073     0.00269
  
  S  H  14   0.13345     0.03220    -0.08581     0.05947    -0.06474    -0.12252
  
  S  H  15  -0.05287    -0.05711     0.10289    -0.00330    -0.12950     0.09316
  
  S  H  16   0.08692     0.03039    -0.13143     0.05126     0.13998    -0.09267
  
  S  H  17  -0.08312    -0.06240     0.15018     0.01710    -0.10133    -0.11699
  
  S  H  18   0.05139     0.06981    -0.11624    -0.03961     0.10378     0.07719
  
  S  H  19  -0.13465    -0.03111     0.09482     0.00187     0.11915    -0.10160
  
  S  H  20  -0.13320    -0.03429    -0.09152     0.04313     0.09470    -0.11242
  
  S  C  21  -0.16264    -0.08869    -0.25428    -0.01265    -0.23519     0.11557
 PX  C  21   0.07213    -0.00812     0.05254    -0.05409     0.00885    -0.04049
 PY  C  21   0.00634    -0.00650    -0.00252    -0.01064    -0.01483    -0.01217
 PZ  C  21   0.07604    -0.19712    -0.01795    -0.24809     0.06794    -0.04020
  
  S  C  22   0.08565     0.09010     0.17626     0.05903     0.19527    -0.04025
 PX  C  22  -0.03948     0.02894    -0.03046     0.03993    -0.03236    -0.01467
 PY  C  22  -0.02570     0.00218    -0.02447     0.00533    -0.01881     0.07645
 PZ  C  22  -0.11082     0.28386     0.00916     0.24995    -0.07659     0.02769
  
  S  C  23  -0.06892    -0.10366    -0.15072    -0.04027    -0.13575    -0.14788
 PX  C  23   0.03160    -0.02695     0.00910    -0.05790    -0.01223     0.05837
 PY  C  23   0.01569     0.00297     0.02584     0.00302     0.03673    -0.03704
 PZ  C  23   0.09995    -0.29855    -0.01718    -0.25868     0.07963     0.00570
  
  S  C  24   0.12787     0.07851     0.17896    -0.06531     0.10740     0.21688
 PX  C  24  -0.03859     0.01886    -0.01382     0.05879     0.01746    -0.02127
 PY  C  24  -0.05140    -0.03103    -0.05442     0.02058    -0.00842    -0.04108
 PZ  C  24  -0.04087     0.23218     0.05762     0.26270    -0.04750     0.01036
  
  S  H  25   0.09381     0.05629     0.16333     0.00921     0.16443    -0.04411
  
  S  H  26  -0.05459    -0.05702    -0.10876    -0.03865    -0.11863     0.04206
  
  S  H  27   0.04576     0.06979     0.09760     0.02998     0.08278     0.10817
  
  S  H  28  -0.07042    -0.04010    -0.10806     0.04142    -0.07978    -0.10856
  
  S  C  29   0.25810     0.07943     0.29828    -0.08479     0.16414    -0.12227
 PX  C  29  -0.03273     0.01588     0.02492     0.04682     0.08809    -0.03187
 PY  C  29  -0.00001     0.01849     0.04955    -0.02985     0.06289     0.15339
 PZ  C  29   0.01949     0.04139     0.07574     0.28832    -0.02688     0.05763
  
  S  C  30  -0.23242    -0.08632    -0.25859     0.13888    -0.09557    -0.20520
 PX  C  30   0.00755    -0.01256    -0.05570    -0.00110    -0.10200     0.05527
 PY  C  30   0.04323     0.00373     0.03937    -0.00371     0.01568    -0.10943
 PZ  C  30  -0.06535    -0.04938    -0.10913    -0.28854     0.02285    -0.04955




    ROOT NO.   55          56          57          58          59          60

             3.54739     3.73514     3.82652     3.85786     4.10407     4.15983
  
  
  S  C   1  -0.05049     0.35542    -0.20985    -0.05273     0.06436     0.04818
 PX  C   1   0.04138    -0.04041     0.01194    -0.10736    -0.00190     0.11269
 PY  C   1  -0.02444     0.04802    -0.01427     0.08891    -0.01356    -0.04468
 PZ  C   1  -0.10713    -0.09841     0.05787    -0.04853    -0.00794     0.00863
  
  S  C   2  -0.05226    -0.15255     0.09896     0.24569    -0.02761    -0.26002
 PX  C   2  -0.04482     0.14640    -0.08757     0.05544     0.02348    -0.02726
 PY  C   2  -0.02983     0.08954    -0.06284     0.01372     0.01480     0.06015
 PZ  C   2   0.14024     0.04237    -0.02949     0.08318    -0.00290    -0.03074
  
  S  C   3   0.10578    -0.20799     0.14317    -0.21557     0.00868    -0.00648
 PX  C   3   0.02417    -0.04137    -0.00493    -0.00397     0.05223    -0.18050
 PY  C   3   0.00390    -0.12085     0.08940     0.11760    -0.04459    -0.05382
 PZ  C   3  -0.26512    -0.04944     0.05024    -0.07714     0.00591    -0.01015
  
  S  C   4  -0.03061     0.23170    -0.18638    -0.07625     0.08644    -0.07015
 PX  C   4  -0.05720     0.07255    -0.00024     0.13529    -0.00894    -0.15306
 PY  C   4   0.02778    -0.03957     0.05491    -0.10908     0.03569    -0.11941
 PZ  C   4   0.26947     0.04162    -0.04153     0.07634    -0.00169    -0.01372
  
  S  C   5  -0.06962     0.02860     0.06931     0.28764    -0.04509    -0.26932
 PX  C   5   0.04755    -0.14329     0.08869    -0.03745    -0.02065     0.08318
 PY  C   5   0.00950    -0.08120     0.05369     0.00280    -0.01222    -0.04118
 PZ  C   5  -0.14814    -0.06045     0.03386    -0.07216     0.00114     0.03428
  
  S  C   6   0.11010    -0.31239     0.14325    -0.21646    -0.00567     0.11931
 PX  C   6  -0.00891    -0.01398     0.00091    -0.00426    -0.00483     0.02397
 PY  C   6   0.00292     0.10029    -0.08429    -0.10747     0.03448     0.10749
 PZ  C   6   0.10440     0.09467    -0.05092     0.07065     0.00143    -0.01910
  
  S  C   7  -0.06785     0.15723    -0.01826     0.12714    -0.12523     0.32784
 PX  C   7   0.02036    -0.06530     0.08163    -0.09368    -0.00753     0.05637
 PY  C   7   0.01838    -0.03799     0.06428    -0.06071     0.01945    -0.04837
 PZ  C   7   0.25352     0.02284    -0.03853     0.06459    -0.00784     0.01407
  
  S  C   8  -0.00875    -0.11193    -0.03198     0.08503    -0.09121     0.35746
 PX  C   8   0.00672     0.07474    -0.11746    -0.02283     0.06493    -0.03839
 PY  C   8  -0.00460     0.04782    -0.05411    -0.01443     0.00898     0.06474
 PZ  C   8  -0.25364    -0.00197     0.03273    -0.06341     0.00836    -0.03024
  
  S  C   9   0.01433    -0.05332     0.21471    -0.03721    -0.13560    -0.07795
 PX  C   9  -0.01615    -0.07003     0.02768     0.05152    -0.08096     0.15644
 PY  C   9  -0.01404    -0.02651    -0.06719     0.07396    -0.10826    -0.04064
 PZ  C   9   0.34040    -0.00327    -0.04980     0.07097     0.00530     0.00292
  
  S  C  10  -0.02590     0.03426    -0.18686     0.07061    -0.01374    -0.11924
 PX  C  10   0.00220     0.04848     0.04602     0.08773    -0.17249     0.03579
 PY  C  10  -0.01591     0.05710    -0.08110     0.05317     0.02765     0.12537
 PZ  C  10  -0.32678    -0.00767     0.07590    -0.08400    -0.00533     0.01498
  
  S  C  11  -0.00465    -0.11056    -0.05558    -0.15774     0.34468    -0.00425
 PX  C  11  -0.01711    -0.00807    -0.13319    -0.02351     0.04300    -0.04537
 PY  C  11  -0.00807    -0.00339    -0.06091    -0.00446    -0.08171    -0.02279
 PZ  C  11   0.23257    -0.00522    -0.04533     0.07246    -0.02902    -0.00115
  
  S  H  12   0.00739     0.10311     0.03881     0.10503    -0.33121     0.01862
  
  S  C  13   0.04714     0.14504     0.03530    -0.14994     0.34380    -0.03420
 PX  C  13   0.03974     0.03601     0.10475    -0.07415    -0.06723    -0.02670
 PY  C  13   0.00777     0.01051     0.07110    -0.05361     0.02476    -0.01832
 PZ  C  13  -0.25240     0.01310     0.04967    -0.04276    -0.03779     0.00076
  
  S  H  14   0.04856    -0.12997     0.02487    -0.08532     0.12679    -0.29086
  
  S  H  15   0.02755    -0.21033     0.12395     0.04053    -0.05123     0.01476
  
  S  H  16   0.03068     0.11451    -0.07332    -0.16129     0.00846     0.24529
  
  S  H  17   0.04852    -0.02100    -0.05351    -0.19284     0.02194     0.25992
  
  S  H  18  -0.07200     0.20415    -0.09859     0.13917    -0.00274    -0.03454
  
  S  H  19   0.00576     0.08248     0.03062    -0.04611     0.10006    -0.31602
  
  S  H  20  -0.02785    -0.10753    -0.04559     0.09568    -0.30787     0.04377
  
  S  C  21   0.06353     0.15031    -0.01387    -0.24222    -0.25882    -0.12914
 PX  C  21   0.05502     0.08927     0.14709    -0.00670    -0.05272    -0.01099
 PY  C  21   0.01731     0.05437     0.10441     0.01676     0.05217     0.02594
 PZ  C  21   0.13525    -0.06261    -0.07028     0.05299     0.03727     0.01098
  
  S  C  22  -0.11087    -0.26826    -0.30089     0.13098     0.06286     0.03407
 PX  C  22  -0.01525     0.01508     0.01804     0.01570    -0.01716     0.00694
 PY  C  22  -0.00187    -0.01869    -0.11425    -0.11318    -0.11533    -0.06891
 PZ  C  22  -0.10698     0.07012     0.08799    -0.03600    -0.00851    -0.00164
  
  S  C  23   0.07096     0.19313     0.35473     0.13830     0.10552     0.09073
 PX  C  23   0.05100     0.05731     0.02961    -0.09496    -0.10120    -0.04141
 PY  C  23  -0.01720    -0.04970    -0.03142     0.06890     0.03306     0.03031
 PZ  C  23   0.10706    -0.08508    -0.12805     0.00579     0.00891    -0.01240
  
  S  C  24   0.04462    -0.01425    -0.15229    -0.27721    -0.28089    -0.13337
 PX  C  24  -0.05696    -0.08937    -0.12540     0.02866     0.01330    -0.00668
 PY  C  24  -0.02235    -0.05716    -0.09539     0.01671    -0.03842    -0.02520
 PZ  C  24  -0.14496     0.05289     0.08149    -0.02107    -0.02274     0.00324
  
  S  H  25  -0.04619    -0.10622     0.01604     0.15820     0.24880     0.10381
  
  S  H  26   0.06958     0.16895     0.19438    -0.09225     0.00215    -0.01882
  
  S  H  27  -0.04883    -0.11717    -0.21603    -0.09591    -0.02515    -0.05530
  
  S  H  28  -0.02971     0.01862     0.10830     0.17110     0.24226     0.09756
  
  S  C  29   0.05962     0.08927     0.26747     0.11390    -0.04464     0.05720
 PX  C  29  -0.05866    -0.10582    -0.04022     0.11234     0.15063     0.06414
 PY  C  29   0.02848     0.02337     0.04620    -0.12172     0.11633    -0.01676
 PZ  C  29  -0.24993     0.04847     0.08414    -0.06058    -0.03057    -0.00062
  
  S  C  30  -0.11675    -0.15953    -0.19780     0.20201    -0.00260     0.03815
 PX  C  30  -0.00364     0.03138    -0.00390    -0.01321     0.18080     0.00694
 PY  C  30   0.00197     0.03242     0.13607     0.13797     0.06597     0.06868
 PZ  C  30   0.25232    -0.05494    -0.09244     0.06480     0.03228     0.00158




    ROOT NO.   61          62          63          64          65          66

             5.18821     5.37759     5.42896     5.59297     6.10014     6.32730
  
  
  S  C   1   0.08610    -0.00624    -0.27956    -0.17210    -0.06640    -0.02822
 PX  C   1  -0.11632     0.03317     0.07721     0.17554     0.10990     0.05432
 PY  C   1   0.03711    -0.03197     0.29889     0.06178     0.01909     0.00965
 PZ  C   1  -0.01961     0.00271     0.04324     0.03309     0.01390     0.00605
  
  S  C   2   0.14833    -0.04083    -0.05798    -0.19151    -0.11302    -0.05957
 PX  C   2   0.08739    -0.01217    -0.19093    -0.14936    -0.06615    -0.03345
 PY  C   2  -0.03056     0.01321     0.05571     0.13372     0.18382     0.14031
 PZ  C   2   0.02140    -0.00555    -0.00664    -0.02238    -0.00746    -0.00146
  
  S  C   3  -0.06311    -0.00121     0.04197    -0.03392    -0.15362    -0.12460
 PX  C   3   0.15415    -0.04301     0.02942    -0.07398     0.08761     0.10214
 PY  C   3   0.03449    -0.01288    -0.02878    -0.11105    -0.14694    -0.11882
 PZ  C   3   0.00783    -0.00281    -0.00294    -0.00897    -0.00143     0.00172
  
  S  C   4   0.06328    -0.00623    -0.00219     0.05645     0.16792     0.14006
 PX  C   4  -0.10138     0.03857    -0.03417     0.11691     0.07330     0.03863
 PY  C   4  -0.10677     0.01181     0.06481     0.03562    -0.14955    -0.14260
 PZ  C   4  -0.00802     0.00312    -0.00545     0.00599     0.00181     0.00066
  
  S  C   5  -0.14951     0.05987    -0.09825     0.15442     0.10610     0.05447
 PX  C   5  -0.02433    -0.00413    -0.00982    -0.06701    -0.14886    -0.12096
 PY  C   5  -0.12221     0.06315    -0.23355     0.11120     0.14956     0.10491
 PZ  C   5   0.00555    -0.00386     0.01033    -0.01048    -0.01666    -0.01293
  
  S  C   6  -0.14821     0.06653    -0.29881     0.06040     0.05111     0.02350
 PX  C   6   0.08397    -0.04992     0.27584    -0.02968    -0.05579    -0.03115
 PY  C   6   0.09896    -0.03144    -0.05128    -0.14605    -0.09121    -0.04580
 PZ  C   6   0.02594    -0.01158     0.04945    -0.01244    -0.00986    -0.00409
  
  S  C   7  -0.21057     0.05475    -0.04693     0.07773    -0.10350    -0.11416
 PX  C   7  -0.07878     0.00689    -0.02509    -0.02645    -0.12537    -0.10679
 PY  C   7   0.07294    -0.04659     0.03262    -0.11465     0.08442     0.23979
 PZ  C   7  -0.01353     0.00255    -0.00024    -0.00114    -0.01114    -0.00584
  
  S  C   8   0.19173    -0.03573    -0.06060    -0.10593     0.10035     0.11112
 PX  C   8  -0.02000     0.01093    -0.02375     0.10987    -0.01452    -0.10995
 PY  C   8   0.09099    -0.01552    -0.05449    -0.05375     0.16302     0.21892
 PZ  C   8  -0.01402     0.00265     0.00481     0.01440    -0.00781    -0.01336
  
  S  C   9  -0.00334    -0.00589     0.05052    -0.13670     0.00661     0.13679
 PX  C   9   0.13691    -0.02857    -0.02977    -0.07227     0.07533     0.09121
 PY  C   9   0.09848     0.03010    -0.01531     0.11722     0.04939    -0.16761
 PZ  C   9   0.00054    -0.00027     0.00141    -0.01112     0.00183     0.01261
  
  S  C  10   0.02881     0.04417    -0.00368     0.15318     0.01549    -0.16978
 PX  C  10  -0.13040     0.03187     0.02860    -0.05831    -0.07258     0.06865
[...]
  S   H   18   -0.0811   -0.0445    0.0661   -0.0340   -0.0410    0.0067    0.3145   -0.0528
  S   H   19   -0.1716   -0.2359   -0.3132   -0.0494    0.0442   -0.0057    0.0562    0.1898
  S   H   20    0.1576   -0.2200   -0.1937   -0.0518   -0.2349    0.0525   -0.0167   -0.1920
  S   C   21    0.1151   -0.0591    0.0065    0.0023    0.0025    0.0760   -0.0009   -0.0117
  Px  C   21    0.1525   -0.1228    0.0599   -0.2004    0.2877   -0.0912    0.0032    0.1005
  Py  C   21   -0.1535    0.1008   -0.0205    0.0539   -0.0928    0.2728   -0.0038    0.0090
  Pz  C   21   -0.0204    0.0148   -0.0054    0.0135   -0.0216    0.0117   -0.0002   -0.0033
  S   C   22    0.0560   -0.0210   -0.0174    0.0344   -0.0546   -0.1195    0.0014   -0.0404
  Px  C   22    0.0560   -0.0272   -0.0269    0.0372   -0.0800    0.5047   -0.0050    0.1304
  Py  C   22    0.0943   -0.0452    0.0076   -0.0383    0.0430   -0.0364    0.0011   -0.0273
  Pz  C   22   -0.0119    0.0053    0.0041   -0.0031    0.0095   -0.0786    0.0008   -0.0205
  S   C   23   -0.0683    0.0291   -0.0154    0.0354   -0.0530    0.1218   -0.0013    0.0265
  Px  C   23   -0.1257    0.0590    0.0018   -0.0220    0.0160   -0.1885    0.0004    0.0026
  Py  C   23   -0.0284    0.0167   -0.0247    0.0439   -0.0806   -0.4634    0.0045   -0.1107
  Pz  C   23    0.0258   -0.0118    0.0014   -0.0005    0.0028    0.0188   -0.0000    0.0014
  S   C   24   -0.1338    0.0643    0.0154   -0.0047    0.0205   -0.0627    0.0006    0.0320
  Px  C   24    0.0688   -0.0337    0.0075   -0.0492    0.0530   -0.1856    0.0012   -0.0139
  Py  C   24   -0.1863    0.1301    0.0865   -0.1852    0.3206    0.2213   -0.0049   -0.1398
  Pz  C   24   -0.0186    0.0107    0.0041   -0.0121    0.0188    0.0152   -0.0004   -0.0106
  S   H   25   -0.2209    0.1448   -0.0434    0.1161   -0.1826    0.1557   -0.0029   -0.0282
  S   H   26   -0.0833    0.0395    0.0252   -0.0273    0.0647   -0.3091    0.0030   -0.0791
  S   H   27    0.1153   -0.0563    0.0174   -0.0197    0.0467    0.2969   -0.0022    0.0593
  S   H   28    0.2221   -0.1323   -0.0655    0.1076   -0.2087   -0.1712    0.0028    0.0666
  S   C   29    0.1739   -0.1385    0.0288   -0.1911    0.2235    0.0146   -0.0012    0.0159
  Px  C   29   -0.0884    0.0510   -0.0043   -0.0926    0.0875   -0.1027    0.0045    0.1233
  Py  C   29    0.1438   -0.1337   -0.0054    0.1253   -0.1183   -0.0310   -0.0019    0.0665
  Pz  C   29    0.0091   -0.0054   -0.0002   -0.0120    0.0118    0.0047   -0.0003   -0.0086
  S   C   30   -0.1563    0.1203    0.0438   -0.1792    0.2361   -0.0125    0.0013    0.0034
  Px  C   30   -0.0813    0.0931    0.0095    0.0587   -0.0264    0.0769   -0.0014   -0.1840
  Py  C   30    0.1554   -0.1133   -0.0104   -0.1434    0.1227    0.0739   -0.0063   -0.0940
  Pz  C   30   -0.0085    0.0078    0.0066   -0.0084    0.0186   -0.0003    0.0000   -0.0008


   Root No.      73        74        75        76        77        78        79        80

                73 A      74 A      75 A      76 A      77 A      78 A      79 A      80 A   

                 9.350     9.572    10.073    10.650    11.001    11.804    11.810    12.245
  
  S   C    1    0.0358   -0.0589   -0.0561   -0.0659    0.0519   -0.0030    0.0192   -0.0082
  Px  C    1    0.1451   -0.1841    0.0467   -0.2192   -0.1466   -0.1406   -0.1263   -0.2501
  Py  C    1    0.0420   -0.0897   -0.1958   -0.0501    0.2156    0.0772    0.1166    0.1343
  Pz  C    1   -0.0036    0.0033   -0.0049    0.0055    0.0058    0.0054    0.0037    0.0094
  S   C    2   -0.0796    0.0753   -0.0676    0.0512    0.0995    0.0094    0.0621    0.0242
  Px  C    2    0.1354   -0.1849   -0.0212   -0.2357   -0.0406   -0.1412   -0.0604   -0.2469
  Py  C    2   -0.2275    0.1620   -0.2012   -0.0019    0.2227   -0.0838    0.1169   -0.1037
  Pz  C    2   -0.0192    0.0162   -0.0168    0.0062    0.0222   -0.0019    0.0132   -0.0012
  S   C    3   -0.0160    0.0357   -0.0058    0.0611    0.0366    0.0063    0.0262    0.0125
  Px  C    3   -0.2068    0.1330   -0.2473    0.0048    0.0382    0.1668   -0.1920    0.0915
  Py  C    3   -0.0898    0.0301   -0.1502   -0.0796    0.2863   -0.2641    0.2550   -0.2833
  Pz  C    3   -0.0175    0.0100   -0.0226   -0.0041    0.0183   -0.0065    0.0024   -0.0118
  S   C    4   -0.0275    0.0436    0.0025    0.0683   -0.0414   -0.0006   -0.0313   -0.0065
  Px  C    4   -0.1156    0.1147    0.2205   -0.1205   -0.2160    0.1136   -0.1028    0.1506
  Py  C    4   -0.0753    0.1090    0.1107   -0.0106    0.1376   -0.2856    0.2963   -0.2397
  Pz  C    4   -0.0088    0.0104    0.0138   -0.0048   -0.0003   -0.0111    0.0116   -0.0063
  S   C    5   -0.0781    0.0901    0.0683    0.0394   -0.0947   -0.0049   -0.0553   -0.0179
  Px  C    5   -0.0576    0.0397    0.1446   -0.1705   -0.1142    0.1155   -0.0527    0.1673
  Py  C    5    0.2434   -0.2754   -0.0968   -0.2050    0.1604    0.0595    0.1022    0.1234
  Pz  C    5   -0.0093    0.0094    0.0089   -0.0020   -0.0098    0.0042   -0.0053    0.0054
  S   C    6    0.0583   -0.0626    0.0437   -0.0848   -0.0388   -0.0057   -0.0192   -0.0077
  Px  C    6    0.1826   -0.1754    0.1355   -0.1975   -0.0996   -0.0193   -0.0430   -0.0281
  Py  C    6    0.0963   -0.1438   -0.1560   -0.1459    0.2528    0.1402    0.1638    0.2488
  Pz  C    6    0.0135   -0.0138    0.0056   -0.0145   -0.0013   -0.0000    0.0005    0.0007
  S   C    7    0.0983   -0.0259    0.0765    0.0632    0.0450    0.0093    0.0900    0.0006
  Px  C    7   -0.1551    0.1304   -0.1721    0.0663    0.0691    0.1863   -0.1103    0.1076
  Py  C    7    0.2738   -0.0341    0.1284    0.1942    0.1237    0.1192    0.1538    0.0281
  Pz  C    7    0.0034    0.0071   -0.0057    0.0144    0.0126    0.0202    0.0004    0.0092
  S   C    8    0.0487   -0.0275   -0.0564    0.0917   -0.0500   -0.0081   -0.0757    0.0050
  Px  C    8    0.0531    0.0652    0.0210    0.2194   -0.1289   -0.2126   -0.0345   -0.0993
  Py  C    8   -0.1747    0.1403    0.1575   -0.1206    0.0467   -0.0986    0.1697   -0.0986
  Pz  C    8   -0.0038    0.0080    0.0081    0.0023   -0.0016   -0.0109    0.0068   -0.0062
  S   C    9    0.0044   -0.0346   -0.0302   -0.0011   -0.0041    0.0106   -0.0270    0.0018
  Px  C    9    0.0840    0.0359   -0.0303    0.2716   -0.1920   -0.2010   -0.1034   -0.0833
  Py  C    9    0.0353   -0.0173    0.1120    0.0932   -0.1412    0.3166    0.3331   -0.0316
  Pz  C    9    0.0019   -0.0003   -0.0041    0.0035   -0.0006   -0.0114   -0.0117   -0.0019
  S   C   10   -0.0078   -0.0297    0.0354   -0.0215   -0.0128   -0.0037    0.0310    0.0055
  Px  C   10    0.2311   -0.0269   -0.0290    0.2623    0.2204   -0.1573   -0.1755    0.0703
  Py  C   10    0.1028    0.0373    0.1059    0.0952    0.0900    0.3353    0.2917    0.0479
  Pz  C   10    0.0164    0.0030   -0.0019    0.0199    0.0151   -0.0015   -0.0037    0.0053
  S   C   11   -0.0923   -0.0326    0.0656   -0.0799   -0.0463   -0.0094    0.0762    0.0345
  Px  C   11    0.1580   -0.0504    0.0196    0.2042    0.1548   -0.1740   -0.1063    0.1047
  Py  C   11   -0.2598   -0.1558    0.1860   -0.1073   -0.0266   -0.1091    0.1195    0.1577
  Pz  C   11    0.0113    0.0098   -0.0137    0.0058    0.0012    0.0089   -0.0098   -0.0099
  S   H   12   -0.1684   -0.0637    0.0840   -0.0937   -0.0516   -0.0075    0.0889    0.0505
  S   C   13   -0.0385   -0.0474   -0.0733   -0.0608    0.0448    0.0067   -0.0966   -0.0227
  Px  C   13   -0.0948   -0.1854   -0.1511    0.0424   -0.0816    0.1835   -0.0456   -0.1602
  Py  C   13    0.1305    0.0861    0.1332    0.1947   -0.1451    0.0917    0.1996   -0.0096
  Pz  C   13   -0.0007    0.0022    0.0016   -0.0026    0.0018   -0.0036   -0.0001    0.0024
  S   H   14    0.1761   -0.0542    0.1114    0.0634    0.0404    0.0073    0.1110   -0.0187
  S   H   15    0.0699   -0.1084   -0.0825   -0.0992    0.0600   -0.0082    0.0189   -0.0129
  S   H   16   -0.1486    0.1281   -0.0942    0.0592    0.1236   -0.0057    0.0782    0.0128
  S   H   17   -0.1330    0.1429    0.0860    0.0527   -0.1128    0.0060   -0.0701   -0.0113
  S   H   18    0.1085   -0.1038    0.0815   -0.1157   -0.0584   -0.0083   -0.0257   -0.0134
  S   H   19    0.1025   -0.0565   -0.0757    0.1040   -0.0552   -0.0039   -0.1021    0.0266
  S   H   20   -0.0921   -0.0957   -0.1067   -0.0732    0.0485    0.0030   -0.1115   -0.0413
  S   C   21    0.0710    0.0952   -0.0879   -0.0433   -0.0868   -0.0027    0.0601   -0.0091
  Px  C   21   -0.1056   -0.0360    0.1855   -0.1540    0.1208    0.1119   -0.0619   -0.1503
  Py  C   21    0.1980    0.2951   -0.1403   -0.1925   -0.1386    0.0382    0.1029   -0.0890
  Pz  C   21    0.0056    0.0044   -0.0082    0.0044   -0.0055   -0.0054    0.0027    0.0078
  S   C   22   -0.0293   -0.0743   -0.0441    0.0747   -0.0396    0.0034    0.0290   -0.0116
  Px  C   22    0.0835    0.2078    0.1158   -0.1705    0.0863   -0.0104   -0.0586    0.0312
  Py  C   22    0.1005    0.1567   -0.1800   -0.1561   -0.2168    0.1014    0.1781   -0.1959
  Pz  C   22   -0.0104   -0.0285   -0.0203    0.0228   -0.0161    0.0027    0.0113   -0.0071
  S   C   23   -0.0529   -0.0750    0.0720    0.0763    0.0468    0.0051   -0.0148   -0.0151
  Px  C   23    0.1230    0.2143    0.0158   -0.2024    0.1197   -0.1009   -0.1563    0.2142
  Py  C   23    0.0930    0.0850   -0.2226   -0.0646   -0.1904    0.0534    0.1292   -0.1062
  Pz  C   23   -0.0070   -0.0114   -0.0012    0.0103   -0.0084    0.0079    0.0101   -0.0153
  S   C   24    0.0558    0.0993    0.0587   -0.0521    0.0832   -0.0025   -0.0655    0.0179
  Px  C   24    0.1329    0.2212   -0.0599   -0.2272    0.0284   -0.1069   -0.0938    0.2220
  Py  C   24   -0.1474   -0.2337   -0.2024    0.0044   -0.1908   -0.0841    0.1006    0.1153
  Pz  C   24   -0.0133   -0.0219   -0.0140    0.0069   -0.0148   -0.0026    0.0099    0.0016
  S   H   25    0.1224    0.1442   -0.1212   -0.0413   -0.1023   -0.0170    0.0692    0.0057
  S   H   26   -0.0535   -0.1322   -0.0617    0.1075   -0.0424    0.0008    0.0283   -0.0100
  S   H   27   -0.0825   -0.1053    0.1096    0.0932    0.0606    0.0059   -0.0194   -0.0125
  S   H   28    0.1121    0.1801    0.0859   -0.0654    0.1068    0.0133   -0.0812    0.0026
  S   C   29    0.0188    0.0517   -0.0148   -0.0549   -0.0354   -0.0037    0.0280    0.0010
  Px  C   29   -0.1572   -0.0966    0.2703   -0.1141    0.2031    0.1255   -0.1123   -0.1509
  Py  C   29   -0.1177   -0.1195    0.1174   -0.0028   -0.0901   -0.2822    0.2068    0.3240
  Pz  C   29    0.0134    0.0105   -0.0176    0.0049   -0.0058    0.0098   -0.0036   -0.0111
  S   C   30    0.0246    0.0496    0.0049   -0.0531    0.0334    0.0003   -0.0311    0.0081
  Px  C   30   -0.1008   -0.2011   -0.2316   -0.0127   -0.0502    0.1732   -0.1374   -0.1614
  Py  C   30   -0.0503   -0.0672   -0.1827   -0.0628   -0.2385   -0.2617    0.1921    0.3312
  Pz  C   30    0.0017    0.0023   -0.0024   -0.0036   -0.0016   -0.0054    0.0008    0.0063


   Root No.      81        82        83        84

                81 A      82 A      83 A      84 A   

                12.534    12.769    13.206    14.384
  
  S   C    1   -0.0603    0.0007    0.0123    0.0400
  Px  C    1   -0.1826   -0.2240    0.1968    0.1097
  Py  C    1   -0.0360    0.1440   -0.0960    0.0252
  Pz  C    1    0.0046    0.0085   -0.0068   -0.0027
  S   C    2    0.0031    0.0280   -0.0207    0.0204
  Px  C    2   -0.2206   -0.2108    0.1931    0.1501
  Py  C    2   -0.1182   -0.0530    0.0485    0.1181
  Pz  C    2   -0.0046    0.0010   -0.0003    0.0074
  S   C    3    0.0175    0.0008    0.0079    0.0218
  Px  C    3   -0.2393   -0.0789    0.2578    0.2351
  Py  C    3   -0.0897   -0.1108    0.0010    0.0953
  Pz  C    3   -0.0193   -0.0117    0.0164    0.0194
  S   C    4    0.0108   -0.0045   -0.0022    0.0264
  Px  C    4   -0.2720    0.2055   -0.1001    0.2299
  Py  C    4   -0.0807    0.0473   -0.1929    0.1288
  Pz  C    4   -0.0147    0.0118   -0.0150    0.0161
  S   C    5   -0.0168   -0.0178    0.0177    0.0280
  Px  C    5   -0.2634    0.2182   -0.1040    0.1919
  Py  C    5   -0.1159    0.1703   -0.1120    0.0618
  Pz  C    5   -0.0089    0.0068   -0.0029    0.0072
  S   C    6   -0.0717    0.0127    0.0006    0.0436
  Px  C    6   -0.1450    0.0133    0.0092    0.0837
  Py  C    6   -0.1160    0.2890   -0.1924    0.0715
  Pz  C    6   -0.0095    0.0037   -0.0015    0.0051
  S   C    7    0.0583   -0.0186   -0.0014    0.0140
  Px  C    7   -0.1946   -0.0928    0.2647    0.2551
  Py  C    7    0.0199   -0.1086    0.1195    0.1513
  Pz  C    7   -0.0119   -0.0126    0.0255    0.0257
  S   C    8    0.0535    0.0029   -0.0047    0.0148
  Px  C    8   -0.0789    0.1741   -0.2189    0.2724
  Py  C    8   -0.1557    0.0628   -0.1234    0.1314
  Pz  C    8   -0.0103    0.0085   -0.0108    0.0147
  S   C    9    0.0536   -0.0215   -0.0039   -0.0049
  Px  C    9   -0.0136    0.1528   -0.2159    0.2733
  Py  C    9    0.0128   -0.2438   -0.0863    0.1569
  Pz  C    9   -0.0004    0.0092   -0.0028    0.0018
  S   C   10    0.0567    0.0056   -0.0110   -0.0141
  Px  C   10    0.0500    0.1190    0.2030    0.2507
  Py  C   10   -0.0493   -0.2491    0.1491    0.1538
  Pz  C   10   -0.0047    0.0001    0.0163    0.0181
  S   C   11    0.0596   -0.0076    0.0173   -0.0068
  Px  C   11    0.1140    0.1252    0.2103    0.2352
  Py  C   11    0.1853    0.0245    0.1591    0.1208
  Pz  C   11   -0.0144   -0.0032   -0.0107   -0.0076
  S   H   12    0.0493   -0.0225    0.0246    0.0006
  S   C   13    0.0585    0.0025   -0.0207   -0.0109
  Px  C   13    0.1779   -0.1104   -0.2557    0.2587
  Py  C   13   -0.0346   -0.0921   -0.0820    0.1532
  Pz  C   13   -0.0028    0.0022    0.0036   -0.0049
  S   H   14    0.0534   -0.0298   -0.0148    0.0008
  S   H   15   -0.0736    0.0025    0.0111    0.0425
  S   H   16    0.0047    0.0291   -0.0295    0.0121
  S   H   17   -0.0099   -0.0250    0.0288    0.0148
  S   H   18   -0.0804    0.0075    0.0060    0.0433
  S   H   19    0.0472    0.0182    0.0075    0.0016
  S   H   20    0.0557    0.0192   -0.0289   -0.0020
  S   C   21   -0.0027    0.0333    0.0282   -0.0245
  Px  C   21    0.3013    0.1621    0.1069    0.1732
  Py  C   21    0.1647    0.1693    0.1376    0.0568
  Pz  C   21   -0.0121   -0.0085   -0.0056   -0.0071
  S   C   22   -0.0717    0.0094    0.0025   -0.0411
  Px  C   22    0.1393   -0.0294   -0.0130    0.0774
  Py  C   22    0.1978    0.3024    0.2279    0.0614
  Pz  C   22   -0.0158    0.0089    0.0056   -0.0085
  S   C   23   -0.0720    0.0145    0.0102   -0.0438
  Px  C   23    0.1323   -0.2939   -0.2125    0.1162
  Py  C   23    0.0813    0.1606    0.1166    0.0214
  Pz  C   23   -0.0049    0.0198    0.0136   -0.0053
  S   C   24   -0.0032   -0.0423   -0.0345   -0.0159
  Px  C   24    0.1847   -0.2834   -0.1987    0.1589
  Py  C   24    0.1153   -0.0707   -0.0239    0.1151
  Pz  C   24    0.0017    0.0026    0.0033    0.0028
  S   H   25   -0.0077    0.0307    0.0345   -0.0182
  S   H   26   -0.0838    0.0082    0.0026   -0.0420
  S   H   27   -0.0766    0.0057    0.0020   -0.0404
  S   H   28   -0.0009   -0.0438   -0.0453   -0.0073
  S   C   29    0.0060    0.0045   -0.0012   -0.0270
  Px  C   29    0.3008    0.1401    0.0927    0.2035
  Py  C   29    0.1197    0.0126    0.2396    0.1164
  Pz  C   29   -0.0194   -0.0063   -0.0165   -0.0152
  S   C   30    0.0092   -0.0082    0.0032   -0.0256
  Px  C   30    0.2200   -0.1098   -0.2640    0.2382
  Py  C   30    0.0858   -0.1342    0.0406    0.0932
  Pz  C   30    0.0020   -0.0021    0.0011   -0.0000


              NET ATOMIC CHARGES AND DIPOLE CONTRIBUTIONS

  ATOM NO.   TYPE          CHARGE      No. of ELECS.   s-Pop       p-Pop       
    1          C          -0.021892        4.0219     1.09149     2.93040
    2          C          -0.029439        4.0294     1.10436     2.92507
    3          C           0.009617        3.9904     1.07226     2.91812
    4          C           0.009824        3.9902     1.07047     2.91970
    5          C          -0.025352        4.0254     1.10124     2.92412
    6          C          -0.025170        4.0252     1.09046     2.93471
    7          C          -0.033758        4.0338     1.09812     2.93564
    8          C          -0.038897        4.0389     1.10789     2.93101
    9          C           0.011651        3.9883     1.06359     2.92476
   10          C           0.007188        3.9928     1.07340     2.91942
   11          C          -0.043116        4.0431     1.11763     2.92548
   12          H           0.030343        0.9697     0.96966
   13          C          -0.033750        4.0337     1.09827     2.93548
   14          H           0.026241        0.9738     0.97376
   15          H           0.017793        0.9822     0.98221
   16          H           0.024365        0.9756     0.97564
   17          H           0.019674        0.9803     0.98033
   18          H           0.028262        0.9717     0.97174
   19          H           0.022095        0.9779     0.97790
   20          H           0.033936        0.9661     0.96606
   21          C          -0.033479        4.0335     1.10451     2.92897
   22          C          -0.020827        4.0208     1.08961     2.93122
   23          C          -0.020741        4.0207     1.08198     2.93876
   24          C          -0.027250        4.0272     1.09528     2.93197
   25          H           0.022821        0.9772     0.97718
   26          H           0.021419        0.9786     0.97858
   27          H           0.016042        0.9840     0.98396
   28          H           0.023114        0.9769     0.97689
   29          C           0.019957        3.9800     1.06332     2.91672
   30          C           0.009329        3.9907     1.06872     2.92195
 DIPOLE           X         Y         Z       TOTAL
 POINT-CHG.    -0.020     0.040    -0.080     0.092
 HYBRID        -0.011     0.091    -0.482     0.490
 SUM           -0.031     0.131    -0.562     0.577


          ATOMIC ORBITAL ELECTRON POPULATIONS

     Atom    s        px        py        pz   
    1  C   1.09149   0.97295   0.96054   0.99691
    2  C   1.10436   0.97251   0.94954   1.00302
    3  C   1.07226   0.96406   0.96912   0.98494
    4  C   1.07047   0.96151   0.97088   0.98731
    5  C   1.10124   0.96759   0.95057   1.00595
    6  C   1.09046   0.94454   0.99405   0.99612
    7  C   1.09812   0.96126   0.95740   1.01698
    8  C   1.10789   0.97278   0.94206   1.01617
    9  C   1.06359   0.97659   0.96936   0.97880
   10  C   1.07340   0.96936   0.97415   0.97590
   11  C   1.11763   0.96779   0.94259   1.01511
   12  H   0.96966
   13  C   1.09827   0.97011   0.95437   1.01099
   14  H   0.97376
   15  H   0.98221
   16  H   0.97564
   17  H   0.98033
   18  H   0.97174
   19  H   0.97790
   20  H   0.96606
   21  C   1.10451   0.96105   0.95188   1.01605
   22  C   1.08961   0.94876   0.99374   0.98872
   23  C   1.08198   0.98415   0.95486   0.99975
   24  C   1.09528   0.97817   0.95586   0.99794
   25  H   0.97718
   26  H   0.97858
   27  H   0.98396
   28  H   0.97689
   29  C   1.06332   0.96274   0.97051   0.98347
   30  C   1.06872   0.96924   0.96665   0.98607

 **********************
 *                    *
 * JOB ENDED NORMALLY *
 *                    *
 **********************



 TOTAL JOB TIME:             0.71 SECONDS

 == MOPAC DONE ==


          MOPAC Job: "./tetraceneTraj/tetracene_1271.mop" ended normally on Feb 15, 2023, at 11:31.

rm: cannot remove ./tetraceneTraj/tetracene_1271.cim: No such file or directory
rm: cannot remove ./tetraceneTraj/tetracene_1271.end: No such file or directory
rm: cannot remove ./tetraceneTraj/tetracene_1271.log: No such file or directory
rm: cannot remove ./tetraceneTraj/tetracene_1271.temp: No such file or directory
rm: cannot remove ./tetraceneTraj/tetracene_1271.ple: No such file or directory
rm: cannot remove ./tetraceneTraj/tetracene_1271.sts: No such file or directory
