 *******************************************************************************
 ** Site#:    0         For non-commercial use only    Version 20.173L 64BITS **
 *******************************************************************************
 ** Cite this program as: MOPAC2016, Version: 20.173L, James J. P. Stewart,   **
 ** Stewart Computational Chemistry, web-site: HTTP://OpenMOPAC.net.          **
 *******************************************************************************
 **                                                                           **
 **                                MOPAC2016                                  **
 **                                                                           **
 *******************************************************************************

                              INDO CALCULATION RESULTS

 *******************************************************************************
 *  CALCULATION DONE:                                Wed Feb 15 11:27:08 2023  *
 *  INDO       - The INDO Hamiltonian to be used
 *
 *
 *
 *                 CHARGE ON SYSTEM = 0
 *
 *
 *
 *  C.I.=(N,M) - 3 DOUBLY FILLED LEVELS USED IN A C.I. INVOLVING 6 M.O.'S
 *  T=         - A TIME OF 172800.0 SECONDS REQUESTED
 *  DUMP=N     - RESTART FILE WRITTEN EVERY 7200.0 SECONDS REQUESTED
 *  RELSCF     - DEFAULT SCF CRITERION MULTIPLIED BY 0.0000
 *              (DEFAULT SCF CRITERION = 0.00010)
 *  ALLVEC     - PRINT ALL EIGENVECTORS
 **********
 *  WARNING: Specified print options may not behave as expected with INDO
 **********
 *******************************************************************************
INDO C.I.=(6,3) AllVEC CHARGE=0 RELSCF=0.000001


   ATOM   CHEMICAL          X               Y               Z
  NUMBER   SYMBOL      (ANGSTROMS)     (ANGSTROMS)     (ANGSTROMS)
 
     1       C         18.46377056  *  19.51624944  *  22.28354912  *
     2       C         19.87608784  *  19.44962267  *  22.36294308  *
     3       C         20.66454452  *  20.66323795  *  22.40193318  *
     4       C         19.93559531  *  21.97394003  *  22.39596121  *
     5       C         18.48716843  *  21.96149397  *  22.47209894  *
     6       C         17.77071086  *  20.75388848  *  22.38500771  *
     7       C         22.09169290  *  20.63619370  *  22.47302491  *
     8       C         20.75378880  *  23.15703719  *  22.38104628  *
     9       C         22.19313072  *  23.07608233  *  22.50060133  *
    10       C         22.88089090  *  21.83721061  *  22.45819785  *
    11       C         24.32480716  *  21.84609155  *  22.58373375  *
    12       H         24.80323514  *  20.82981006  *  22.48729726  *
    13       C         22.94045613  *  24.29402496  *  22.58925285  *
    14       H         22.60828934  *  19.67179044  *  22.51033872  *
    15       H         17.80953522  *  18.68004036  *  22.15147880  *
    16       H         20.36039673  *  18.47464495  *  22.29704500  *
    17       H         17.99084135  *  22.94751184  *  22.47068814  *
    18       H         16.66976477  *  20.81160953  *  22.31304348  *
    19       H         20.37530122  *  24.21219199  *  22.39466864  *
    20       H         22.36068940  *  25.21575046  *  22.64427436  *
    21       C         26.53945957  *  23.06223061  *  22.64604753  *
    22       C         27.14664070  *  24.26932846  *  22.48692502  *
    23       C         26.45108195  *  25.54492210  *  22.52236719  *
    24       C         25.06427869  *  25.60003622  *  22.70177326  *
    25       H         27.09870638  *  22.11614948  *  22.69335972  *
    26       H         28.24682334  *  24.25157100  *  22.36921707  *
    27       H         27.10417303  *  26.44353901  *  22.42175512  *
    28       H         24.50297761  *  26.52535112  *  22.85509051  *
    29       C         25.08637776  *  23.01648589  *  22.69663010  *
    30       C         24.33533516  *  24.32680850  *  22.69180705  *
 


          CARTESIAN COORDINATES 

    NO.       ATOM           X           Y           Z

     1         C         18.4638     19.5162     22.2835
     2         C         19.8761     19.4496     22.3629
     3         C         20.6645     20.6632     22.4019
     4         C         19.9356     21.9739     22.3960
     5         C         18.4872     21.9615     22.4721
     6         C         17.7707     20.7539     22.3850
     7         C         22.0917     20.6362     22.4730
     8         C         20.7538     23.1570     22.3810
     9         C         22.1931     23.0761     22.5006
    10         C         22.8809     21.8372     22.4582
    11         C         24.3248     21.8461     22.5837
    12         H         24.8032     20.8298     22.4873
    13         C         22.9405     24.2940     22.5893
    14         H         22.6083     19.6718     22.5103
    15         H         17.8095     18.6800     22.1515
    16         H         20.3604     18.4746     22.2970
    17         H         17.9908     22.9475     22.4707
    18         H         16.6698     20.8116     22.3130
    19         H         20.3753     24.2122     22.3947
    20         H         22.3607     25.2158     22.6443
    21         C         26.5395     23.0622     22.6460
    22         C         27.1466     24.2693     22.4869
    23         C         26.4511     25.5449     22.5224
    24         C         25.0643     25.6000     22.7018
    25         H         27.0987     22.1161     22.6934
    26         H         28.2468     24.2516     22.3692
    27         H         27.1042     26.4435     22.4218
    28         H         24.5030     26.5254     22.8551
    29         C         25.0864     23.0165     22.6966
    30         C         24.3353     24.3268     22.6918

           Empirical Formula: C18 H12  =    30 atoms



      MOLECULAR POINT GROUP   :   C1  


      RHF CALCULATION, NO. OF DOUBLY OCCUPIED LEVELS = 42

 WARNING: INDO only performs single-point calculations
  SCF CRITERION =    0.1000E-09

 Summary of symmetry occupancy in each shell:

 SHELL     
    1   42
    v   42
 TOTAL  84




    ROOT NO.    1           2           3           4           5           6

           -44.46100   -42.68445   -40.43256   -36.79029   -35.51859   -33.92071
  
  
  S  C   1   0.10467     0.23832    -0.26660    -0.24732     0.06598     0.11727
 PX  C   1   0.02585     0.04933    -0.03784     0.00513     0.03585     0.08625
 PY  C   1   0.03709     0.08040    -0.08254    -0.06319    -0.01477    -0.04818
 PZ  C   1   0.00386     0.00842    -0.00870    -0.00633     0.00071     0.00044
  
  S  C   2   0.13138     0.25221    -0.21362    -0.08206     0.15110     0.29768
 PX  C   2  -0.00214    -0.03091     0.06979     0.11299     0.02768     0.04349
 PY  C   2   0.05259     0.09136    -0.06131     0.00434     0.01217     0.01618
 PZ  C   2  -0.00001    -0.00121     0.00291     0.00461    -0.00118    -0.00352
  
  S  C   3   0.23948     0.31152    -0.07755     0.20358     0.12897     0.21881
 PX  C   3   0.00907    -0.05697     0.13200     0.13734     0.05882     0.05785
 PY  C   3   0.04962     0.02632     0.05609     0.08998    -0.08727    -0.14544
 PZ  C   3   0.00205     0.00003     0.00423     0.00579     0.00113    -0.00042
  
  S  C   4   0.23320     0.30524    -0.08219     0.16240    -0.16705    -0.22441
 PX  C   4   0.04807    -0.00630     0.11865     0.16042     0.01136     0.07380
 PY  C   4  -0.02389    -0.06761     0.07922     0.04205    -0.09564    -0.11731
 PZ  C   4   0.00286     0.00278     0.00043     0.00228    -0.00291    -0.00416
  
  S  C   5   0.12750     0.24802    -0.21769    -0.12276    -0.13708    -0.28885
 PX  C   5   0.04083     0.05743    -0.01446     0.05493    -0.03536    -0.03356
 PY  C   5  -0.03134    -0.07697     0.09206     0.08785    -0.02626    -0.02229
 PZ  C   5  -0.00456    -0.00996     0.01011     0.00721     0.00348     0.00823
  
  S  C   6   0.10325     0.23600    -0.26609    -0.25846    -0.03199    -0.12274
 PX  C   6   0.04559     0.09588    -0.09276    -0.05589    -0.00215    -0.00696
 PY  C   6   0.00170    -0.00103     0.00971     0.02523    -0.04302    -0.09644
 PZ  C   6  -0.00064    -0.00193     0.00293     0.00427    -0.00170    -0.00337
  
  S  C   7   0.22643     0.15463     0.13528     0.26479     0.26079     0.21921
 PX  C   7  -0.02229    -0.06996     0.04014    -0.07985     0.03640    -0.06317
 PY  C   7   0.07974     0.02438     0.08215     0.06394     0.00130    -0.04713
 PZ  C   7  -0.00199    -0.00405     0.00064    -0.00673    -0.00084    -0.00460
  
  S  C   8   0.22596     0.14547     0.14045     0.20510    -0.30226    -0.22346
 PX  C   8   0.05718    -0.01732     0.09224     0.00659    -0.02816     0.05498
 PY  C   8  -0.06037    -0.07260    -0.00949    -0.10674    -0.01703     0.03255
 PZ  C   8   0.00817     0.00308     0.00705     0.00446    -0.01072    -0.00472
  
  S  C   9   0.35027     0.02647     0.29764    -0.00651    -0.20487    -0.05416
 PX  C   9   0.03957    -0.08187     0.02575    -0.18553     0.09300     0.06695
 PY  C   9  -0.04345    -0.05062    -0.03735    -0.11750    -0.14205     0.00601
 PZ  C   9  -0.00090    -0.00595    -0.00182    -0.01496     0.00209     0.00515
  
  S  C  10   0.33971     0.02741     0.28650     0.02680     0.22881     0.02542
 PX  C  10  -0.02382    -0.08537    -0.02663    -0.18639     0.09176    -0.03727
 PY  C  10   0.06308    -0.04221     0.04836    -0.11416    -0.11037    -0.05543
 PZ  C  10   0.01049    -0.00389     0.00877    -0.01110     0.00937    -0.00081
  
  S  C  11   0.25047    -0.11675     0.13044    -0.20196     0.34459    -0.13139
 PX  C  11  -0.05183    -0.02686    -0.09339     0.00858    -0.00754    -0.07626
 PY  C  11   0.07698    -0.06487     0.00950    -0.10230     0.00268    -0.04130
 PZ  C  11  -0.00237    -0.00158    -0.00427    -0.00253    -0.00489    -0.00296
  
  S  H  12   0.07303    -0.03090     0.03696    -0.04385     0.16415    -0.05830
  
  S  C  13   0.26586    -0.11897     0.14840    -0.25109    -0.30313     0.13310
 PX  C  13   0.03460    -0.07001    -0.04409    -0.08344     0.03152     0.08990
 PY  C  13  -0.08473     0.00944    -0.08607     0.05751    -0.02026     0.05757
 PZ  C  13  -0.00045    -0.00333    -0.00391    -0.00578    -0.00110     0.00884
  
  S  H  14   0.06915     0.04700     0.03770     0.07826     0.13880     0.11401
  
  S  H  15   0.02829     0.06885    -0.08515    -0.09689     0.02708     0.05033
  
  S  H  16   0.03977     0.07389    -0.05923    -0.01501     0.07633     0.14957
  
  S  H  17   0.03821     0.07115    -0.05867    -0.03087    -0.07234    -0.14367
  
  S  H  18   0.02649     0.06451    -0.08003    -0.09452    -0.01509    -0.05764
  
  S  H  19   0.07057     0.03694     0.04677     0.04207    -0.15402    -0.09889
  
  S  H  20   0.08425    -0.03440     0.04660    -0.07229    -0.17122     0.06468
  
  S  C  21   0.16252    -0.22961    -0.23469     0.13544     0.19186    -0.28207
 PX  C  21  -0.05136     0.05314     0.01847     0.05018    -0.04454     0.01959
 PY  C  21   0.03944    -0.06958    -0.09538     0.09069    -0.03374     0.01167
 PZ  C  21  -0.00350     0.00530     0.00654    -0.00698    -0.00231     0.00557
  
  S  C  22   0.13480    -0.21930    -0.27864     0.25686     0.04630    -0.13037
 PX  C  22  -0.05720     0.08514     0.09196    -0.05104     0.00120    -0.00117
 PY  C  22  -0.00773     0.00824     0.00194     0.01329    -0.06974     0.10777
 PZ  C  22   0.00667    -0.01068    -0.01281     0.00914     0.00244    -0.00552
  
  S  C  23   0.12826    -0.20784    -0.26212     0.23137    -0.10892     0.13050
 PX  C  23  -0.03256     0.04478     0.04019     0.00017     0.05715    -0.09195
 PY  C  23  -0.04774     0.07396     0.08616    -0.06360    -0.01673     0.04199
 PZ  C  23   0.00472    -0.00740    -0.00849     0.00469    -0.00578     0.00879
  
  S  C  24   0.15844    -0.21785    -0.21097     0.08428    -0.22421     0.29547
 PX  C  24   0.00551    -0.03069    -0.07168     0.10573     0.02960    -0.02738
 PY  C  24  -0.06429     0.08052     0.06275     0.00067     0.02351    -0.02347
 PZ  C  24  -0.00517     0.00770     0.00883    -0.00725     0.00325    -0.00402
  
  S  H  25   0.04809    -0.06627    -0.06568     0.03761     0.09804    -0.13710
  
  S  H  26   0.03511    -0.06096    -0.08534     0.09566     0.02283    -0.06345
  
  S  H  27   0.03177    -0.05505    -0.07681     0.08328    -0.04119     0.05161
  
  S  H  28   0.04808    -0.06260    -0.05522     0.01189    -0.10915     0.14154
  
  S  C  29   0.28303    -0.26855    -0.08850    -0.15183     0.22208    -0.18432
 PX  C  29  -0.05243    -0.01305    -0.12470     0.16097     0.02237    -0.08536
 PY  C  29   0.02862    -0.05902    -0.08107     0.04962    -0.12263     0.09364
 PZ  C  29  -0.01178     0.00973     0.00085     0.00680    -0.01174     0.00931
  
  S  C  30   0.28838    -0.26850    -0.07713    -0.18768    -0.17316     0.20312
 PX  C  30  -0.00809    -0.05425    -0.13642     0.13767     0.07075    -0.03937
 PY  C  30  -0.05772     0.01883    -0.06072     0.09347    -0.12200     0.13008
 PZ  C  30  -0.00923     0.00662    -0.00136     0.00696     0.00360    -0.00228




    ROOT NO.    7           8           9          10          11          12

           -31.83591   -31.42126   -28.57900   -28.37172   -26.83075   -25.93936
  
  
  S  C   1  -0.18635     0.26507    -0.18317    -0.23525    -0.03278    -0.19741
 PX  C   1  -0.09833    -0.11064    -0.10338     0.17257     0.03446    -0.06777
 PY  C   1   0.06836     0.02767     0.09178     0.01144    -0.05388     0.10291
 PZ  C   1   0.00013     0.00059     0.00227     0.00573    -0.00278     0.00510
  
  S  C   2  -0.29455    -0.07834    -0.16558     0.14365     0.11310    -0.02716
 PX  C   2   0.02884    -0.13508     0.13262     0.09369     0.06569     0.20034
 PY  C   2   0.01617    -0.07996     0.05542     0.08334    -0.07566     0.08541
 PZ  C   2   0.00789    -0.00573     0.01176     0.00418    -0.00240     0.01299
  
  S  C   3  -0.07922    -0.25722     0.09368     0.10404    -0.08848     0.17436
 PX  C   3   0.04664     0.05003     0.14754    -0.15104     0.05849     0.09791
 PY  C   3   0.10711     0.00137    -0.03264    -0.10077    -0.18131    -0.11976
 PZ  C   3   0.00545    -0.00022     0.00855    -0.00347    -0.00015     0.00491
  
  S  C   4   0.12479    -0.26051    -0.13147     0.08937    -0.09054    -0.20448
 PX  C   4  -0.10811     0.01010    -0.06424    -0.17032    -0.11365     0.03566
 PY  C   4   0.01529     0.03126    -0.09464    -0.08780     0.14565    -0.09808
 PZ  C   4   0.00348    -0.00299     0.00162     0.00382     0.00140    -0.00100
  
  S  C   5   0.29856    -0.04983     0.17122     0.16056     0.11655     0.04937
 PX  C   5  -0.00790    -0.14528    -0.13819     0.10412    -0.03856    -0.20404
 PY  C   5  -0.00298    -0.07713    -0.06785     0.02706     0.08700    -0.09989
 PZ  C   5  -0.00845    -0.00135    -0.00460    -0.00228    -0.00037    -0.00102
  
  S  C   6   0.14303     0.27953     0.20760    -0.20484    -0.01464     0.20870
 PX  C   6  -0.00084    -0.02859    -0.03799     0.08685    -0.03359    -0.07200
 PY  C   6   0.13615    -0.09065     0.13642     0.15211     0.06748     0.13217
 PZ  C   6   0.00584    -0.01023     0.00594     0.01554     0.00370     0.00664
  
  S  C   7   0.13505     0.02691     0.26897    -0.11495     0.15800     0.04189
 PX  C   7   0.11119     0.15002    -0.03634    -0.00817     0.11438    -0.20028
 PY  C   7   0.06524     0.09397    -0.03258    -0.08492    -0.15731    -0.11309
 PZ  C   7   0.00370     0.00482    -0.00304     0.00344     0.00259    -0.00677
  
  S  C   8  -0.13782    -0.01414    -0.23111    -0.14927     0.17847    -0.01686
 PX  C   8  -0.13345     0.14439     0.04257    -0.06183    -0.03625     0.18730
 PY  C   8  -0.08098     0.06695     0.03605     0.04683     0.19404     0.10816
 PZ  C   8  -0.00845     0.00420    -0.00237    -0.00302     0.00639     0.00645
  
  S  C   9  -0.20921     0.22423    -0.02399     0.01783    -0.07862     0.16411
 PX  C   9   0.06610     0.01863     0.09189     0.19156    -0.12863    -0.04839
 PY  C   9  -0.14936    -0.04703     0.04869     0.09079     0.22439     0.10757
 PZ  C   9   0.00234    -0.00535     0.01020     0.01585     0.00282    -0.00461
  
  S  C  10   0.19986     0.25951     0.00773     0.02100    -0.07411    -0.17458
 PX  C  10   0.06708    -0.02735    -0.10711     0.16704     0.13924    -0.06806
 PY  C  10  -0.11800     0.01554    -0.08383     0.10320    -0.21582     0.11010
 PZ  C  10   0.00846     0.00559    -0.00398     0.01192    -0.00220    -0.00702
  
  S  C  11   0.16631    -0.01027    -0.23980     0.09379     0.22028    -0.02347
 PX  C  11  -0.09890    -0.15667    -0.05533    -0.10909     0.07648     0.17320
 PY  C  11  -0.05314    -0.08635    -0.04632     0.02974    -0.17875     0.13096
 PZ  C  11  -0.00870    -0.01368    -0.00194    -0.00610    -0.00983     0.01813
  
  S  H  12   0.08267     0.00126    -0.09855     0.00229     0.23431    -0.04090
  
  S  C  13  -0.17828    -0.02213     0.23849     0.12715     0.14441    -0.03612
 PX  C  13   0.12874    -0.13494     0.06738    -0.01409    -0.15391    -0.18089
 PY  C  13   0.06098    -0.07976     0.05805    -0.10288     0.14634    -0.13362
 PZ  C  13   0.00862    -0.01334     0.01110    -0.00299     0.00030    -0.01965
  
  S  H  14   0.06204     0.00597     0.13517    -0.01529     0.20557     0.02284
  
  S  H  15  -0.08996     0.15764    -0.09882    -0.18679    -0.00454    -0.12659
  
  S  H  16  -0.14425    -0.03225    -0.07421     0.05320     0.12070    -0.00583
  
  S  H  17   0.14369    -0.02613     0.08266     0.06575     0.12111     0.02630
  
  S  H  18   0.07340     0.14964     0.12859    -0.14770     0.01434     0.15333
  
  S  H  19  -0.08603    -0.00041    -0.09383    -0.03409     0.21786     0.01494
  
  S  H  20  -0.09683    -0.00955     0.12074     0.01414     0.21057    -0.02970
  
  S  C  21  -0.26270    -0.05759     0.17776    -0.13577     0.09663    -0.06984
 PX  C  21  -0.03948     0.13028     0.13140     0.14513     0.02302    -0.20226
 PY  C  21  -0.02353     0.08091     0.07333     0.06411    -0.11495    -0.07227
 PZ  C  21   0.00807    -0.01019    -0.01176    -0.01376     0.00231     0.01627
  
  S  C  22  -0.16849     0.24096     0.16800     0.26137    -0.03867    -0.16957
 PX  C  22  -0.01542     0.02524     0.04086     0.09545     0.04311    -0.08918
 PY  C  22   0.12789     0.08863    -0.16335     0.13616    -0.03578     0.14059
 PZ  C  22  -0.00629    -0.00186     0.00659    -0.01318    -0.00226    -0.00107
  
  S  C  23   0.15812     0.26037    -0.23599     0.22990     0.02129     0.19737
 PX  C  23  -0.10567     0.07300     0.07784     0.17994    -0.03613    -0.04238
 PY  C  23   0.05817    -0.02247    -0.08205    -0.01134     0.08342     0.06495
 PZ  C  23   0.01073    -0.00400    -0.00918    -0.01853     0.00374     0.00532
  
  S  C  24   0.27118    -0.01871    -0.13634    -0.16029     0.13239    -0.01888
 PX  C  24   0.03094     0.12868    -0.16261     0.09285    -0.03834     0.20211
 PY  C  24   0.00126     0.06808    -0.06999     0.07426     0.10134     0.05789
 PZ  C  24  -0.00554    -0.00934     0.01126    -0.00961     0.00498    -0.01483
  
  S  H  25  -0.12591    -0.03007     0.08742    -0.05740     0.12085    -0.06070
  
  S  H  26  -0.09055     0.13018     0.10757     0.18388     0.00665    -0.14097
  
  S  H  27   0.06798     0.13936    -0.12767     0.16958     0.03721     0.11548
  
  S  H  28   0.12210    -0.01470    -0.04948    -0.07243     0.13661    -0.04562
  
  S  C  29  -0.04533    -0.25488    -0.12885    -0.14336    -0.06974     0.20799
 PX  C  29  -0.10449    -0.00503     0.06814    -0.16130     0.10953     0.02302
 PY  C  29  -0.00352    -0.01491     0.12067    -0.05617    -0.19485    -0.05521
 PZ  C  29   0.00139     0.00222     0.00734    -0.00553    -0.00209    -0.00373
  
  S  C  30   0.08551    -0.23226     0.13447    -0.11289    -0.13551    -0.14446
 PX  C  30   0.06438    -0.01112    -0.13560    -0.15031    -0.06428     0.10636
 PY  C  30   0.08203     0.02099     0.04410    -0.10106     0.17373    -0.14415
 PZ  C  30   0.00232    -0.00135    -0.00321    -0.00986     0.00434    -0.00082




    ROOT NO.   13          14          15          16          17          18

           -24.94515   -24.25639   -22.81522   -21.48905   -20.60005   -19.34801
  
  
  S  C   1   0.03606    -0.11197    -0.00144    -0.16924    -0.04082     0.00872
 PX  C   1   0.03084     0.24204    -0.02389     0.02226     0.23688     0.16342
 PY  C   1  -0.16425     0.00060    -0.18722     0.10480    -0.08455     0.19690
 PZ  C   1  -0.01188     0.01124    -0.01803     0.01076     0.00620     0.03410
  
  S  C   2   0.16154     0.19297     0.11559     0.12390     0.12798     0.00854
 PX  C   2   0.04197    -0.04432     0.08250     0.16351    -0.14958    -0.14434
 PY  C   2  -0.20480    -0.01807    -0.20326     0.05786    -0.14726     0.07529
 PZ  C   2  -0.01107    -0.00543    -0.01128     0.00595    -0.01648     0.00713
  
  S  C   3  -0.15701    -0.11359    -0.00634     0.09341    -0.08089    -0.15141
 PX  C   3   0.14346    -0.13879     0.16181    -0.09892    -0.01483    -0.00734
 PY  C   3  -0.16554    -0.09368    -0.03048    -0.10795     0.13050    -0.08494
 PZ  C   3   0.00052    -0.00657     0.00058    -0.01026    -0.00676     0.00398
  
  S  C   4  -0.06630    -0.11736    -0.01260    -0.09004    -0.07855    -0.13511
 PX  C   4  -0.08941    -0.15630     0.06950     0.18766     0.10606    -0.06820
 PY  C   4   0.26168    -0.06862     0.15441     0.01916    -0.07327     0.05123
 PZ  C   4   0.00121     0.00399    -0.00087    -0.01280    -0.00091    -0.00144
  
  S  C   5   0.15835     0.17952     0.10414    -0.11838     0.09715    -0.00379
 PX  C   5  -0.05989    -0.03205    -0.13153    -0.18163    -0.19165    -0.00699
 PY  C   5   0.19293    -0.02512     0.17355    -0.11023    -0.05297    -0.17761
 PZ  C   5   0.00172    -0.00097     0.00433    -0.00128     0.00416    -0.00403
  
  S  C   6  -0.04407    -0.10741     0.01121     0.17845    -0.01978     0.02225
 PX  C   6  -0.09510     0.11429    -0.18013    -0.12777     0.01977     0.23992
 PY  C   6   0.06742     0.19474     0.08503     0.08332     0.23578     0.02807
 PZ  C   6   0.00153     0.02120    -0.00042     0.00326     0.02413     0.01700
  
  S  C   7   0.13206    -0.10791    -0.06366    -0.21141    -0.05383     0.15722
 PX  C   7   0.05451     0.12973    -0.18462    -0.07625     0.04329     0.15579
 PY  C   7  -0.09879     0.09362     0.02552    -0.01282     0.23906    -0.03757
 PZ  C   7   0.00143     0.00410    -0.00733    -0.00391    -0.00727     0.00934
  
  S  C   8   0.14444    -0.10380    -0.04282     0.21516    -0.05696     0.18163
 PX  C   8  -0.11671     0.15030    -0.07262     0.04892     0.17388     0.04754
 PY  C   8   0.05867     0.06585    -0.16091     0.03505    -0.10438     0.14617
 PZ  C   8  -0.00043     0.00402    -0.00520    -0.00361     0.00479     0.00016
  
  S  C   9  -0.03543     0.22898     0.03010    -0.01026    -0.01064    -0.01475
 PX  C   9   0.00256     0.04995     0.10202    -0.16274    -0.17708    -0.14165
 PY  C   9   0.00101    -0.09493    -0.18472    -0.07848    -0.11988    -0.06885
 PZ  C   9   0.00070    -0.00991    -0.00092    -0.02254    -0.01564    -0.01169
  
  S  C  10   0.01231     0.21975    -0.00697     0.00047     0.01480    -0.00918
 PX  C  10   0.00905    -0.06266    -0.10501     0.17814    -0.20033    -0.12940
 PY  C  10  -0.03324     0.09672     0.20783     0.08074    -0.10751    -0.08114
 PZ  C  10   0.00240     0.00066     0.00067     0.00191    -0.01549     0.00220
  
  S  C  11  -0.12317    -0.12063    -0.05266     0.21326     0.03973    -0.14349
 PX  C  11  -0.09716    -0.13899     0.07247    -0.06981     0.19982     0.05611
 PY  C  11   0.05044    -0.05816     0.17064    -0.05700    -0.08218     0.17210
 PZ  C  11   0.00021    -0.01459     0.01864    -0.01546     0.00765     0.03396
  
  S  H  12  -0.11473    -0.06634    -0.10926     0.11409     0.12526    -0.16411
  
  S  C  13  -0.09957    -0.11571    -0.05731    -0.20336     0.06614    -0.16705
 PX  C  13   0.04819    -0.13360     0.16362     0.06628     0.04955     0.15848
 PY  C  13  -0.07868    -0.09798    -0.04529     0.02437     0.23199    -0.03385
 PZ  C  13  -0.00320    -0.01954     0.00959    -0.00242     0.01682     0.01260
  
  S  H  14   0.14122    -0.06877    -0.10315    -0.11791    -0.15534     0.15511
  
  S  H  15   0.08785    -0.15560     0.10833    -0.15609    -0.07936    -0.19162
  
  S  H  16   0.21373     0.09650     0.20259     0.07399     0.11015    -0.08768
  
  S  H  17   0.20957     0.08576     0.19312    -0.06758     0.07522    -0.10911
  
  S  H  18   0.03849    -0.12248     0.12791     0.18454    -0.01782    -0.16818
  
  S  H  19   0.12890    -0.05042    -0.10954     0.11116    -0.13143     0.17017
  
  S  H  20  -0.10913    -0.06882    -0.11220    -0.10523     0.14562    -0.15817
  
  S  C  21  -0.14925     0.17536     0.10357    -0.12470    -0.09145    -0.01867
 PX  C  21  -0.08425    -0.00040     0.13796     0.15664    -0.18534     0.03966
 PY  C  21   0.16915     0.02115    -0.16555     0.13555    -0.06567    -0.13570
 PZ  C  21  -0.00147     0.00402    -0.00013    -0.02443     0.01179     0.01137
  
  S  C  22   0.03522    -0.13422    -0.00854     0.16641     0.03173    -0.00479
 PX  C  22  -0.10161    -0.12466     0.17725     0.09867     0.01136     0.23783
 PY  C  22   0.07922    -0.19461    -0.08446    -0.06046     0.24209     0.00701
 PZ  C  22   0.00487     0.02612    -0.01193    -0.00763    -0.02190    -0.02569
  
  S  C  23  -0.02227    -0.12208     0.01552    -0.17591     0.05186    -0.01675
 PX  C  23   0.03919    -0.24162     0.00655    -0.02636     0.23784     0.12831
 PY  C  23  -0.15318     0.00284     0.19914    -0.13716    -0.09085     0.18446
 PZ  C  23  -0.00413     0.03229    -0.00167     0.00532    -0.03625    -0.01777
  
  S  C  24  -0.17320     0.18736     0.12530     0.10770    -0.13647     0.01203
 PX  C  24   0.05404     0.04122    -0.06193    -0.15621    -0.13823    -0.12627
 PY  C  24  -0.18125     0.00579     0.20643    -0.09426    -0.13797     0.09960
 PZ  C  24  -0.00945     0.00413     0.01353     0.01779    -0.00134     0.02529
  
  S  H  25  -0.19759     0.07722     0.19187    -0.08636    -0.07150     0.08544
  
  S  H  26  -0.04654    -0.14800     0.11520     0.15554     0.02461     0.17874
  
  S  H  27  -0.07285    -0.15322     0.11691    -0.17768     0.07718     0.16238
  
  S  H  28  -0.20661     0.08579     0.19951     0.05390    -0.10055     0.11111
  
  S  C  29   0.08212    -0.08609    -0.00650    -0.09327     0.07503     0.14429
 PX  C  29  -0.07804     0.16232    -0.07353    -0.17025     0.10980    -0.12699
 PY  C  29   0.23621     0.08817    -0.14846    -0.00727    -0.09191     0.04003
 PZ  C  29   0.00342     0.00370    -0.00057    -0.00816     0.00297     0.02135
  
  S  C  30   0.14399    -0.09824    -0.02384     0.09457     0.07415     0.14214
 PX  C  30   0.13311     0.15833    -0.15379     0.11039    -0.04939    -0.00323
 PY  C  30  -0.15980     0.08582     0.00547     0.11730     0.12778    -0.11395
 PZ  C  30  -0.00213     0.00469     0.00100     0.00746     0.00312     0.02075




    ROOT NO.   19          20          21          22          23          24

           -18.44863   -17.32368   -16.84582   -16.69914   -15.92187   -15.46340
  
  
  S  C   1  -0.14739     0.00027    -0.03418     0.10578     0.05749     0.07205
 PX  C   1   0.06921     0.19501     0.01023     0.02695     0.14723     0.12314
 PY  C   1   0.12184    -0.17159     0.03204    -0.10283     0.19265     0.03824
 PZ  C   1   0.01628    -0.00503     0.00313    -0.01541     0.04702     0.00853
  
  S  C   2   0.14054    -0.01134     0.04321    -0.04935    -0.00550    -0.00059
 PX  C   2   0.08697    -0.21961     0.02676    -0.09774    -0.16485    -0.13866
 PY  C   2  -0.03413    -0.17143     0.01702     0.25517    -0.04261     0.22266
 PZ  C   2  -0.00249    -0.02001     0.00016     0.00154     0.00816    -0.00042
  
  S  C   3  -0.04946    -0.00517     0.02685     0.22207    -0.06634     0.02676
 PX  C   3  -0.16083     0.00623    -0.02718     0.03431     0.26019    -0.05537
 PY  C   3  -0.03484     0.30521    -0.02481    -0.04755    -0.04409    -0.08213
 PZ  C   3  -0.01880    -0.00079    -0.00266    -0.00348     0.00948    -0.02127
  
  S  C   4   0.07638     0.06896    -0.00439    -0.20649    -0.08189    -0.06013
 PX  C   4   0.14739     0.21020    -0.00414     0.06846     0.07792     0.17005
 PY  C   4   0.10617    -0.14276     0.00538    -0.12116     0.22346     0.09891
 PZ  C   4  -0.02163    -0.00456    -0.00229    -0.00365    -0.01457    -0.02707
  
  S  C   5  -0.17327    -0.00494    -0.04830     0.06545    -0.00541    -0.00856
 PX  C   5  -0.02545    -0.17341     0.02163    -0.21038    -0.10766    -0.19200
 PY  C   5  -0.11418    -0.11876     0.02042     0.20976    -0.12073     0.15676
 PZ  C   5  -0.01070     0.00357    -0.00236     0.01407    -0.00251     0.00243
  
  S  C   6   0.16375    -0.00142     0.03050    -0.11977     0.05889    -0.03812
 PX  C   6  -0.16464    -0.04930    -0.07580     0.01941     0.24045     0.00065
 PY  C   6   0.01846     0.24582    -0.03054     0.01117     0.01263    -0.02690
 PZ  C   6  -0.00544     0.02283    -0.00679     0.00242     0.02431    -0.00079
  
  S  C   7  -0.08250     0.07000    -0.01033    -0.04860     0.07213    -0.01646
 PX  C   7   0.15844     0.05409     0.01216    -0.16630    -0.20298     0.02909
 PY  C   7   0.06447     0.01818     0.17161     0.23086    -0.01222    -0.15118
 PZ  C   7   0.00001     0.00461     0.00009    -0.01598    -0.01109    -0.01327
  
  S  C   8   0.10913    -0.00709    -0.01011     0.05608     0.07230     0.05628
 PX  C   8  -0.19845     0.06208    -0.15413    -0.03109    -0.20102     0.01134
 PY  C   8  -0.06197    -0.07132     0.10361     0.27347    -0.06262    -0.15700
 PZ  C   8  -0.01712     0.00735    -0.00245    -0.00732    -0.02289    -0.01986
  
  S  C   9  -0.13679    -0.10060    -0.15084    -0.13648    -0.09278     0.07120
 PX  C   9   0.06301    -0.09034     0.08225    -0.04063     0.11142    -0.01119
 PY  C   9  -0.04357     0.23071    -0.07356    -0.03259    -0.12674     0.01957
 PZ  C   9   0.00373     0.02218     0.02225    -0.00731    -0.01266    -0.02937
  
  S  C  10   0.12498    -0.13290     0.16504     0.09699    -0.03058    -0.08515
 PX  C  10   0.07745     0.09186     0.00313     0.07619    -0.05694     0.03388
 PY  C  10  -0.07664    -0.21001    -0.06915    -0.08255     0.12150     0.07140
 PZ  C  10   0.00243     0.01171     0.01861     0.00002    -0.01247    -0.03429
  
  S  C  11  -0.10162     0.03794    -0.05581     0.02405     0.07594     0.01032
 PX  C  11  -0.19734    -0.02616    -0.11664    -0.12536     0.11154     0.01461
 PY  C  11  -0.07968     0.01835     0.22755    -0.00163     0.13681    -0.20914
 PZ  C  11  -0.02048     0.01074     0.02378    -0.01003    -0.00438    -0.05232
  
  S  H  12  -0.05526     0.00231    -0.25969    -0.03950    -0.02507     0.18232
  
  S  C  13   0.09227     0.07133     0.04206    -0.03045     0.09373     0.01227
 PX  C  13   0.14889    -0.07070    -0.15413     0.03899     0.10225     0.18929
 PY  C  13   0.06331    -0.05822     0.22595     0.09398     0.10287    -0.14353
 PZ  C  13   0.01323     0.00681     0.02720     0.00415    -0.01210    -0.01393
  
  S  H  14  -0.02630     0.04800    -0.13737    -0.27387    -0.03470     0.12079
  
  S  H  15  -0.18458     0.01522    -0.04335     0.11202    -0.18740    -0.05223
  
  S  H  16   0.12550     0.04062     0.01470    -0.26384    -0.03580    -0.22742
  
  S  H  17  -0.15668    -0.02947    -0.01338     0.28012    -0.04673     0.19523
  
  S  H  18   0.21456     0.04699     0.07870    -0.07487    -0.17847    -0.01895
  
  S  H  19   0.06268    -0.06630     0.13896     0.26437     0.05614    -0.11274
  
  S  H  20   0.02655     0.02855     0.27078     0.04558     0.08086    -0.18868
  
  S  C  21   0.17617    -0.03021    -0.02891     0.05011    -0.00174     0.05426
 PX  C  21   0.00042     0.16640    -0.21452     0.11615     0.11089    -0.13357
 PY  C  21  -0.12207     0.15925     0.23738    -0.07670     0.09487     0.23312
 PZ  C  21   0.02409    -0.02205    -0.00876     0.00844    -0.04262    -0.03099
  
  S  C  22  -0.17071     0.01256     0.09133    -0.07622     0.04966     0.02842
 PX  C  22  -0.14624     0.04633    -0.02736    -0.00673    -0.18767    -0.18589
 PY  C  22  -0.01873    -0.24484    -0.03736    -0.05009    -0.03594    -0.08639
 PZ  C  22   0.02309     0.01533     0.00461     0.00863     0.01108     0.01572
  
  S  C  23   0.16228    -0.01707    -0.08711     0.06220     0.05657    -0.01771
 PX  C  23   0.04471    -0.21227     0.08519    -0.01853    -0.20396     0.16457
 PY  C  23   0.16215     0.13900    -0.01729     0.10658    -0.17223     0.04957
 PZ  C  23  -0.01427     0.03541     0.01100    -0.00676     0.01327    -0.01546
  
  S  C  24  -0.14839     0.01487     0.02401    -0.05683     0.00090    -0.03824
 PX  C  24   0.12654     0.21131    -0.12848     0.07578     0.20880    -0.14260
 PY  C  24  -0.02412     0.16180     0.30155    -0.09162    -0.01200     0.23036
 PZ  C  24  -0.03382    -0.00507     0.06198    -0.02655    -0.06316     0.03289
  
  S  H  25   0.17198    -0.06040    -0.28666     0.12977    -0.02187    -0.20486
  
  S  H  26  -0.20269     0.04400     0.01917    -0.04352    -0.13915    -0.15318
  
  S  H  27   0.20640    -0.02024    -0.01806     0.09711    -0.19855     0.10638
  
  S  H  28  -0.14689     0.03106     0.29899    -0.13018    -0.10089     0.21431
  
  S  C  29  -0.07158     0.04587     0.19866    -0.04142    -0.08294    -0.03996
 PX  C  29   0.12393    -0.20935     0.08744    -0.06823    -0.08139     0.16805
 PY  C  29   0.13323     0.12318    -0.04026     0.07815    -0.23049     0.07817
 PZ  C  29   0.00813     0.00489     0.00610     0.00535    -0.05703    -0.03515
  
  S  C  30   0.05838    -0.01413    -0.20470     0.07960    -0.11022    -0.00315
 PX  C  30  -0.15602     0.01770     0.01477     0.01405    -0.18923    -0.18934
 PY  C  30  -0.07506    -0.27112    -0.10337    -0.03371     0.05801    -0.06279
 PZ  C  30  -0.01698     0.00500     0.03394    -0.00471    -0.06411    -0.02199




    ROOT NO.   25          26          27          28          29          30

           -14.97396   -14.80479   -14.56162   -14.34679   -13.80155   -13.45191
  
  
  S  C   1  -0.02203     0.01383     0.01891     0.03296    -0.04725     0.00143
 PX  C   1  -0.25094     0.03406    -0.02906    -0.10282    -0.09538     0.08691
 PY  C   1   0.02574    -0.25879     0.01754    -0.02329    -0.18252    -0.06900
 PZ  C   1  -0.01399    -0.04447     0.11803    -0.04111    -0.00958     0.22522
  
  S  C   2  -0.03780    -0.10083    -0.00892    -0.04024     0.01124     0.00162
 PX  C   2   0.23383    -0.09359     0.00334     0.08372     0.11724    -0.11347
 PY  C   2  -0.21379    -0.11723    -0.02660     0.04678     0.09618    -0.00804
 PZ  C   2  -0.00435    -0.03037     0.14952    -0.03319     0.03979     0.23921
  
  S  C   3   0.00315     0.06215    -0.00086    -0.02277    -0.01196     0.00249
 PX  C   3   0.18070     0.08056     0.04830    -0.06151    -0.24557     0.03781
 PY  C   3  -0.01011     0.19438    -0.00998    -0.04534    -0.03551     0.02920
 PZ  C   3  -0.00233    -0.01685     0.24394    -0.06349     0.06406     0.29703
  
  S  C   4  -0.04411     0.02872    -0.01885     0.00122    -0.01600     0.01512
 PX  C   4  -0.15345     0.05844     0.05466     0.09770    -0.12794    -0.02492
 PY  C   4  -0.02000    -0.15021     0.05095     0.05115    -0.17637    -0.00907
 PZ  C   4   0.00309    -0.03506     0.23600    -0.06315     0.08137     0.28724
  
  S  C   5   0.09136     0.00837     0.02693     0.05318     0.02748    -0.00919
 PX  C   5   0.09503    -0.07668    -0.04993    -0.11704     0.10628     0.05773
 PY  C   5  -0.18686    -0.26696    -0.02720    -0.01635    -0.00560    -0.02588
 PZ  C   5  -0.00877    -0.02419     0.14653    -0.03138     0.04437     0.23500
  
  S  C   6   0.01751    -0.01433     0.00730    -0.03231    -0.05389     0.00961
 PX  C   6   0.25840     0.04926     0.08877     0.14884    -0.13360    -0.10125
 PY  C   6   0.00858     0.29974    -0.00757     0.03309     0.05898     0.01939
 PZ  C   6   0.00625     0.01110     0.11963    -0.01943     0.02241     0.22193
  
  S  C   7  -0.05398     0.01840    -0.02106    -0.05477     0.00361     0.01217
 PX  C   7  -0.19308    -0.10464    -0.08040     0.03701     0.23328    -0.06248
 PY  C   7   0.14215    -0.15124    -0.05812    -0.26714    -0.00178    -0.06475
 PZ  C   7  -0.03607    -0.01740     0.23717    -0.04936     0.07196     0.16174
  
  S  C   8   0.02322     0.05283     0.00707     0.03442     0.03926    -0.02392
 PX  C   8   0.09130    -0.10031     0.02284     0.19834     0.19296    -0.05382
 PY  C   8   0.09404     0.18719    -0.07992    -0.22951     0.14890     0.04687
 PZ  C   8  -0.01141    -0.04344     0.23484    -0.05276     0.06064     0.14787
  
  S  C   9  -0.01165    -0.02322     0.01212    -0.00451     0.00653     0.01854
 PX  C   9  -0.09843     0.11929    -0.07145    -0.22388    -0.20316     0.06031
 PY  C   9  -0.04487     0.05091    -0.02824    -0.12788    -0.15223    -0.04014
 PZ  C   9  -0.04417    -0.03284     0.31818    -0.11304     0.02723     0.03633
  
  S  C  10  -0.00170     0.00959    -0.03016     0.02558    -0.00805     0.00466
 PX  C  10  -0.00485     0.19506     0.09648     0.24378    -0.16201     0.02056
 PY  C  10  -0.01313     0.10995     0.04404     0.12969    -0.04337     0.09293
 PZ  C  10  -0.04711    -0.01984     0.32379    -0.07363     0.05726     0.04120
  
  S  C  11   0.06118    -0.00332     0.04499     0.04034     0.00879     0.00167
 PX  C  11   0.01549    -0.17802    -0.11387    -0.22198     0.16743    -0.00911
 PY  C  11  -0.19714     0.06813    -0.02610     0.20049     0.17539    -0.00128
 PZ  C  11  -0.05890    -0.03402     0.23868    -0.06644     0.05963    -0.11352
  
  S  H  12   0.18756    -0.11811    -0.01928    -0.22651    -0.07466     0.00261
  
  S  C  13  -0.02197    -0.06135    -0.02042    -0.03746    -0.02542    -0.01737
 PX  C  13   0.11145     0.04978    -0.04210    -0.09324     0.28452    -0.03496
 PY  C  13   0.03272    -0.13825     0.03488     0.31467     0.09517     0.01573
 PZ  C  13  -0.01655    -0.03562     0.25836    -0.05917     0.03221    -0.11045
  
  S  H  14  -0.20522     0.07679     0.01134     0.19660     0.10650     0.03526
  
  S  H  15   0.09750     0.17704    -0.00335     0.09291     0.17197    -0.02122
  
  S  H  16   0.24089     0.00877     0.00986    -0.01534    -0.01962    -0.05403
  
  S  H  17  -0.14073    -0.17623     0.01126     0.05588    -0.03442    -0.05101
  
  S  H  18  -0.22718    -0.04159    -0.08589    -0.15287     0.10138     0.08977
  
  S  H  19   0.05597     0.20462    -0.06682    -0.22975     0.07528     0.04815
  
  S  H  20  -0.03630    -0.14255     0.04625     0.25577    -0.07061     0.01582
  
  S  C  21   0.03072     0.07547     0.03638     0.04011     0.01028     0.00026
 PX  C  21   0.01433    -0.06436     0.05380     0.07250     0.13891    -0.09044
 PY  C  21   0.21378    -0.09718     0.01298     0.02180     0.13372     0.05219
 PZ  C  21  -0.04552     0.01582     0.17345    -0.04942    -0.04312    -0.23384
  
  S  C  22  -0.02030    -0.00065    -0.01793    -0.04484     0.05153    -0.02089
 PX  C  22  -0.08738    -0.15997    -0.07441    -0.05465    -0.22711     0.06683
 PY  C  22  -0.21259     0.18632     0.02085    -0.07984    -0.06713    -0.12620
 PZ  C  22   0.00497     0.00969     0.15054    -0.02722     0.01850    -0.22835
  
  S  C  23   0.00797     0.00080     0.01520     0.02721     0.06360    -0.01940
 PX  C  23   0.07398     0.20526     0.09542     0.06076    -0.06273    -0.02251
 PY  C  23   0.21075    -0.16632    -0.00738     0.10871    -0.09114     0.15899
 PZ  C  23  -0.02544    -0.02058     0.12215    -0.05834    -0.00639    -0.22018
  
  S  C  24  -0.07306     0.02495    -0.02037    -0.04497    -0.03819     0.00483
 PX  C  24  -0.03317    -0.21707    -0.03993    -0.05147     0.09492    -0.05279
 PY  C  24   0.09049     0.01233    -0.01148    -0.08724     0.07690    -0.09890
 PZ  C  24  -0.00945     0.03045     0.17194    -0.05830    -0.04377    -0.22162
  
  S  H  25  -0.14011     0.08391     0.04120     0.02791    -0.04150    -0.09753
  
  S  H  26  -0.08873    -0.14830    -0.09275    -0.06985    -0.19504     0.07929
  
  S  H  27   0.19777    -0.01639     0.04167     0.13535    -0.07930     0.12520
  
  S  H  28   0.04180     0.12354     0.02382    -0.06566    -0.01225    -0.08212
  
  S  C  29  -0.02998    -0.06781    -0.01681     0.02525    -0.02311    -0.00287
 PX  C  29   0.01670     0.11285    -0.02013    -0.07225    -0.13065     0.08322
 PY  C  29   0.14156    -0.06072     0.02722    -0.01576    -0.22449    -0.00990
 PZ  C  29  -0.03977    -0.02242     0.26669    -0.07686    -0.02621    -0.24373
  
  S  C  30   0.07108    -0.02885     0.00840    -0.02065    -0.00221     0.00355
 PX  C  30  -0.06270    -0.03702     0.02076     0.11543    -0.27979     0.06933
 PY  C  30  -0.10082     0.13431    -0.00084     0.04610     0.00680     0.10291
 PZ  C  30  -0.02811    -0.01691     0.27305    -0.06638    -0.03866    -0.23274




    ROOT NO.   31          32          33          34          35          36

           -13.11555   -12.92204   -12.18723   -11.87876   -11.61338   -11.49589
  
  
  S  C   1   0.00600    -0.00230    -0.00093     0.00383     0.00064    -0.01850
 PX  C   1   0.14565    -0.19505    -0.08772     0.03537     0.03971    -0.12915
 PY  C   1  -0.17797    -0.16344     0.19820    -0.04422    -0.07695    -0.07777
 PZ  C   1  -0.13114    -0.01583    -0.07889    -0.27442     0.10030     0.09564
  
  S  C   2  -0.02118    -0.01131    -0.02528     0.01942     0.02459     0.03610
 PX  C   2  -0.12828     0.20180     0.06314     0.01171    -0.03037     0.14636
 PY  C   2   0.11850     0.12877    -0.18559     0.11724     0.08093     0.10465
 PZ  C   2  -0.11039     0.03524    -0.08729    -0.19083     0.07159     0.08459
  
  S  C   3  -0.00768     0.02694     0.01724    -0.00757     0.00012    -0.01144
 PX  C   3   0.04147    -0.17521    -0.10568     0.06663     0.11496    -0.17341
 PY  C   3  -0.06828    -0.12318     0.24830    -0.17472    -0.15716    -0.10795
 PZ  C   3  -0.09897     0.03241    -0.05433    -0.06147     0.00618     0.00216
  
  S  C   4   0.02141    -0.03147     0.00294    -0.00405    -0.00303     0.01763
 PX  C   4  -0.10715     0.17873     0.17360    -0.06136    -0.11971     0.17406
 PY  C   4   0.04515     0.08202    -0.21517     0.17841     0.15198     0.12916
 PZ  C   4  -0.11207     0.02419    -0.06836    -0.05389     0.02526     0.00177
  
  S  C   5  -0.02196     0.02616    -0.03144     0.00647     0.03178    -0.01467
 PX  C   5   0.09596    -0.21133    -0.15626     0.03750     0.10524    -0.16335
 PY  C   5  -0.13034    -0.16981     0.15744    -0.08449    -0.06281    -0.08917
 PZ  C   5  -0.12508     0.03167    -0.07856    -0.20058     0.07584     0.08628
  
  S  C   6  -0.01598    -0.01894     0.01141    -0.00588    -0.00160     0.01106
 PX  C   6  -0.13368     0.19084     0.11136     0.00402    -0.05568     0.10721
 PY  C   6   0.19042     0.18876    -0.16493     0.11120     0.04733     0.08868
 PZ  C   6  -0.10997     0.04949    -0.11038    -0.25897     0.11313     0.13545
  
  S  C   7   0.00704    -0.07222    -0.00541     0.03332     0.04287     0.01986
 PX  C   7  -0.05183     0.12802     0.09731    -0.04102    -0.07841     0.19473
 PY  C   7  -0.14187    -0.01615    -0.04196     0.14237     0.14512     0.14764
 PZ  C   7  -0.02231     0.04794     0.04914     0.10691    -0.08829    -0.03942
  
  S  C   8  -0.01504     0.07055    -0.01817     0.01978     0.05087    -0.01509
 PX  C   8  -0.11051    -0.12649    -0.03922     0.00941     0.13219    -0.23651
 PY  C   8   0.06377    -0.07362     0.11544    -0.12828    -0.12614    -0.09707
 PZ  C   8  -0.04775     0.02219     0.01119     0.14012    -0.04350    -0.04735
  
  S  C   9   0.04697    -0.03671     0.00344     0.01551    -0.00822     0.00010
 PX  C   9   0.13049     0.06626     0.06320    -0.06183    -0.15246     0.24215
 PY  C   9  -0.20749    -0.06906     0.07024     0.14402     0.24759     0.15330
 PZ  C   9   0.03486     0.04661     0.11101     0.29969    -0.12949    -0.04414
  
  S  C  10  -0.00083     0.05641    -0.00669    -0.01688     0.02311     0.00083
 PX  C  10  -0.11868    -0.02957     0.02747     0.02827     0.18330    -0.22234
 PY  C  10   0.24027     0.01529    -0.02192    -0.16470    -0.23556    -0.13969
 PZ  C  10   0.04176     0.04571     0.13232     0.27621    -0.12188    -0.07999
  
  S  C  11   0.02181    -0.08004     0.01722     0.02187     0.04538    -0.00888
 PX  C  11   0.11797    -0.02829    -0.02052    -0.04085    -0.14552     0.22948
 PY  C  11  -0.07061    -0.10756     0.12519     0.04455     0.16418     0.09759
 PZ  C  11   0.09482     0.00992     0.11014     0.10996    -0.01950    -0.00280
  
  S  H  12   0.11026     0.04031    -0.12904    -0.06405    -0.21575     0.01160
  
  S  C  13  -0.02455     0.07231     0.00612     0.01086     0.05046     0.01966
 PX  C  13  -0.04770     0.09838     0.05712    -0.04408     0.10429    -0.21950
 PY  C  13   0.11152     0.01886    -0.13657    -0.10648    -0.15132    -0.15597
 PZ  C  13   0.09410     0.02754     0.05424     0.12255    -0.07048    -0.06143
  
  S  H  14   0.09759     0.03786     0.08474    -0.13542    -0.16967    -0.03379
  
  S  H  15   0.07721     0.23718    -0.10016     0.05105     0.02649     0.11986
  
  S  H  16  -0.15934    -0.02909     0.19227    -0.08743    -0.08911    -0.01621
  
  S  H  17  -0.16542    -0.03803     0.20457    -0.09694    -0.10049    -0.01102
  
  S  H  18   0.13826    -0.19404    -0.10626     0.01316     0.05007    -0.11342
  
  S  H  19   0.08651     0.01168     0.11497    -0.12533    -0.16803    -0.01114
  
  S  H  20   0.10329     0.00035    -0.14254    -0.06501    -0.18778    -0.01328
  
  S  C  21  -0.01025    -0.03229     0.02466     0.00643     0.03446    -0.01997
 PX  C  21  -0.02725    -0.24715    -0.12038     0.01440    -0.12818     0.19421
 PY  C  21   0.18636    -0.08586     0.13738    -0.01968     0.08512     0.08886
 PZ  C  21   0.09049     0.00914    -0.02385    -0.22781     0.15008    -0.00818
  
  S  C  22  -0.02670     0.01048    -0.00549     0.00667    -0.00670     0.00421
 PX  C  22   0.09778     0.25588     0.06171    -0.07454     0.09396    -0.12914
 PY  C  22  -0.22478     0.07401    -0.15141    -0.01209    -0.05935    -0.09378
 PZ  C  22   0.10184    -0.06113    -0.03679    -0.28187     0.17664     0.06045
  
  S  C  23  -0.00884    -0.01634    -0.00929    -0.00160    -0.00452    -0.01585
 PX  C  23  -0.02706    -0.23098    -0.04334     0.01371    -0.03890     0.15569
 PY  C  23   0.25594    -0.03171     0.15650    -0.01657     0.08568     0.06087
 PZ  C  23   0.08711     0.01061    -0.04867    -0.27492     0.15924     0.02034
  
  S  C  24  -0.01774     0.01781     0.03417     0.01476     0.03090     0.02921
 PX  C  24   0.03924     0.21549    -0.00405    -0.07900     0.04555    -0.16873
 PY  C  24  -0.17935     0.06767    -0.18725    -0.00311    -0.12323    -0.12829
 PZ  C  24   0.07719    -0.04609    -0.05443    -0.18326     0.07825     0.05839
  
  S  H  25  -0.16802    -0.06841    -0.17734     0.01649    -0.13136     0.01556
  
  S  H  26   0.07295     0.26377     0.06183    -0.04295     0.07155    -0.13986
  
  S  H  27   0.18161    -0.16395     0.10586     0.01721     0.03267     0.13835
  
  S  H  28  -0.16385    -0.04804    -0.15641     0.01825    -0.11600    -0.00158
  
  S  C  29   0.00441     0.05003    -0.00419    -0.00816     0.00711     0.00057
 PX  C  29   0.04327     0.21607     0.13998    -0.01957     0.15340    -0.19875
 PY  C  29  -0.04419     0.05400    -0.23305    -0.03244    -0.20776    -0.10872
 PZ  C  29   0.14211     0.01547     0.04008    -0.07414     0.05881    -0.01648
  
  S  C  30   0.02054    -0.03320    -0.01162    -0.00395    -0.01210    -0.00766
 PX  C  30   0.06062    -0.13843    -0.08376     0.02813    -0.14470     0.21101
 PY  C  30   0.11893    -0.07109     0.26454     0.03946     0.20690     0.11054
 PZ  C  30   0.14587    -0.01726     0.01954    -0.04713     0.01553     0.01587




    ROOT NO.   37          38          39          40          41          42

           -10.52200    -9.83607    -9.66388    -8.17902    -8.12595    -6.67584
  
  
  S  C   1   0.00145    -0.00297    -0.00413    -0.00234    -0.00416    -0.00091
 PX  C   1   0.00678    -0.01279    -0.01854    -0.01544    -0.01827    -0.01359
 PY  C   1   0.01162    -0.04640    -0.02985    -0.02052    -0.04103    -0.02372
 PZ  C   1  -0.06131     0.32776     0.20502     0.15554     0.30212     0.19447
  
  S  C   2  -0.01085    -0.00411     0.01561     0.01350    -0.00195     0.00738
 PX  C   2   0.00199    -0.01110    -0.00711    -0.00823    -0.00081    -0.00939
 PY  C   2   0.00348    -0.00342    -0.01470    -0.01477     0.00101    -0.01084
 PZ  C   2  -0.18288     0.07172     0.36156     0.34486     0.03981     0.24664
  
  S  C   3   0.00221     0.00876    -0.00315    -0.00088     0.00549     0.00764
 PX  C   3   0.00032     0.02800    -0.00768    -0.01261     0.01606     0.00685
 PY  C   3   0.01339     0.00209    -0.00400     0.00718    -0.00007     0.00805
 PZ  C   3  -0.21469    -0.28047     0.23693     0.11723    -0.32583    -0.12817
  
  S  C   4  -0.00509     0.00676     0.00630     0.00427     0.00724     0.00302
 PX  C   4   0.01329    -0.03633    -0.02220     0.00889    -0.03004     0.00929
 PY  C   4  -0.01009    -0.01088    -0.00788    -0.00557    -0.00971    -0.00013
 PZ  C   4   0.19043    -0.24766    -0.28993     0.00955    -0.35023     0.11809
  
  S  C   5   0.00715     0.01299    -0.01238    -0.01894     0.00047    -0.01380
 PX  C   5   0.00203     0.02737    -0.00314    -0.01809     0.01067    -0.01126
 PY  C   5  -0.00529    -0.00007     0.01354     0.00668     0.00474     0.00236
 PZ  C   5   0.19698     0.12465    -0.33533    -0.33248    -0.08181    -0.24897
  
  S  C   6   0.00582     0.00472    -0.00979    -0.00716     0.00327    -0.00286
 PX  C   6  -0.00419    -0.02915     0.00390     0.01758    -0.01357     0.01406
 PY  C   6  -0.01296    -0.03098     0.01558     0.03095    -0.01644     0.02515
 PZ  C   6   0.10474     0.35369    -0.13486    -0.25081     0.22935    -0.18295
  
  S  C   7  -0.00529    -0.00823     0.00641    -0.00633     0.00107    -0.01701
 PX  C   7   0.01839    -0.00732    -0.00896     0.01461     0.00215     0.01405
 PY  C   7  -0.02439    -0.01779     0.01603    -0.00946    -0.00022    -0.02053
 PZ  C   7  -0.31776    -0.22309     0.21857    -0.21149    -0.03144    -0.38265
  
  S  C   8  -0.00979     0.00652     0.01352    -0.01194    -0.00834    -0.02019
 PX  C   8  -0.01527     0.03366     0.03261    -0.01596     0.01275    -0.02057
 PY  C   8   0.01233     0.00912    -0.00238     0.00393     0.01168     0.00498
 PZ  C   8   0.29086    -0.20699    -0.26889     0.20825     0.03226     0.38847
  
  S  C   9   0.00428     0.00790    -0.00366     0.00826     0.02227     0.00178
 PX  C   9  -0.02057    -0.01280    -0.01441    -0.00719    -0.03756    -0.00819
 PY  C   9  -0.01424    -0.00342     0.01187     0.00231    -0.03367    -0.01672
 PZ  C   9   0.23784    -0.02181    -0.04460     0.15609     0.39335     0.03382
  
  S  C  10   0.02094    -0.00050     0.00267     0.01909    -0.02397     0.00439
 PX  C  10   0.02099     0.01475     0.01113     0.00739    -0.01275     0.00065
 PY  C  10   0.00752     0.00983    -0.01647    -0.00069     0.00137     0.01144
 PZ  C  10  -0.25046    -0.00024     0.02353    -0.29857     0.31199    -0.01683
  
  S  C  11  -0.01454     0.01066    -0.00410    -0.01089     0.00089     0.00959
 PX  C  11   0.02038    -0.03354     0.00148     0.02782     0.00096    -0.02846
 PY  C  11   0.04988    -0.03040     0.02510     0.02734     0.00248    -0.03717
 PZ  C  11  -0.33140     0.25212    -0.15162    -0.23452    -0.08650     0.35926
  
  S  H  12  -0.01497    -0.00330    -0.01440     0.00305     0.00899    -0.00403
  
  S  C  13  -0.01137    -0.00823     0.00122    -0.01452    -0.01462     0.01120
 PX  C  13  -0.00325     0.00576     0.00006    -0.01668     0.00042     0.02800
 PY  C  13  -0.02164    -0.00633    -0.01261    -0.02168     0.01327     0.02890
 PZ  C  13   0.35844     0.18569     0.18608     0.25010     0.03027    -0.34991
  
  S  H  14   0.01732    -0.00008    -0.01073     0.00664     0.00179     0.00947
  
  S  H  15  -0.00585     0.00373     0.00998     0.00777     0.00689     0.00439
  
  S  H  16   0.00515    -0.00843    -0.00543    -0.00563    -0.00501    -0.00784
  
  S  H  17  -0.00180    -0.01022     0.00839     0.00914    -0.00321     0.00319
  
  S  H  18  -0.00111     0.00889     0.00306    -0.00245     0.00089    -0.00248
  
  S  H  19   0.01626    -0.00531    -0.01385     0.00843     0.00354     0.01389
  
  S  H  20  -0.00479    -0.00547    -0.00488    -0.00261     0.01066    -0.00253
  
  S  C  21  -0.00067     0.00271    -0.00180     0.00298     0.00179    -0.00415
 PX  C  21  -0.02339    -0.00368    -0.02395     0.02294    -0.00761    -0.00920
 PY  C  21  -0.02530    -0.00267    -0.03607     0.03818    -0.00332    -0.02112
 PZ  C  21  -0.23644    -0.08340    -0.31606     0.32401     0.07616    -0.21680
  
  S  C  22  -0.00326     0.01248    -0.00278     0.00452    -0.01139     0.00100
 PX  C  22  -0.00563    -0.04724    -0.01757     0.01645     0.04360    -0.02289
 PY  C  22  -0.01050    -0.01748    -0.01049     0.00612     0.02540    -0.01039
 PZ  C  22  -0.11790    -0.31467    -0.18761     0.16708     0.28606    -0.17645
  
  S  C  23   0.00811     0.01012     0.00819    -0.00092    -0.00958    -0.00075
 PX  C  23  -0.00211    -0.05409     0.00692    -0.03342     0.03206     0.02580
 PY  C  23   0.01030    -0.01921     0.00845    -0.01184     0.00506     0.00806
 PZ  C  23   0.12235    -0.34614     0.16280    -0.28366     0.18811     0.20053
  
  S  C  24   0.00158    -0.00249    -0.00146     0.00470     0.00002    -0.00443
 PX  C  24   0.04947    -0.00340     0.05664    -0.04638    -0.02057     0.02721
 PY  C  24  -0.03996     0.02391    -0.03605     0.02725     0.00708    -0.01433
 PZ  C  24   0.24417    -0.14557     0.31756    -0.33708    -0.07399     0.21660
  
  S  H  25  -0.00155    -0.00287     0.00537    -0.01102     0.00516     0.00679
  
  S  H  26   0.00709    -0.01195     0.00297    -0.00258     0.01378    -0.00329
  
  S  H  27  -0.00094    -0.01685    -0.00122    -0.00604     0.00668     0.00548
  
  S  H  28  -0.02787     0.00164    -0.02042     0.00524     0.00948     0.00035
  
  S  C  29  -0.01951     0.00731    -0.01832     0.01289    -0.01125     0.00175
 PX  C  29   0.01391     0.00850     0.01164    -0.01043     0.00272     0.00392
 PY  C  29  -0.01908    -0.00662    -0.00826    -0.01294     0.02718     0.00391
 PZ  C  29  -0.23479     0.30123    -0.19068     0.07639    -0.32656     0.14459
  
  S  C  30   0.01461     0.00116     0.01541    -0.00603    -0.00066    -0.00069
 PX  C  30  -0.03227    -0.03152    -0.02678    -0.00232     0.02549     0.00495
 PY  C  30   0.02085    -0.00584     0.01020     0.00212    -0.00862    -0.00084
 PZ  C  30   0.26500     0.23903     0.24746     0.05204    -0.32598    -0.16413




    ROOT NO.   43          44          45          46          47          48

            -1.04199     0.18382     0.29717     1.23755     1.36063     1.78929
  
  
  S  C   1  -0.00207    -0.00115    -0.00032    -0.00021     0.00983    -0.00233
 PX  C   1  -0.00902    -0.00178     0.01967     0.00337    -0.02175    -0.00521
 PY  C   1  -0.02666     0.01814     0.03441    -0.01752    -0.03614     0.00894
 PZ  C   1   0.20406    -0.10778    -0.32240     0.09222     0.38347    -0.03667
  
  S  C   2  -0.01184     0.02093     0.00412    -0.02087    -0.01779     0.01885
 PX  C   2   0.01072    -0.00945    -0.00329     0.00929     0.00462    -0.00282
 PY  C   2   0.01485    -0.01441    -0.00619     0.01709     0.00719    -0.00729
 PZ  C   2  -0.26008     0.31914     0.10087    -0.31309    -0.18847     0.17278
  
  S  C   3   0.00303    -0.00852    -0.01243     0.00719     0.02550    -0.01390
 PX  C   3  -0.00171     0.00598    -0.00487    -0.01892    -0.00300     0.01310
 PY  C   3  -0.00662     0.00989    -0.00059    -0.00821     0.00384     0.00309
 PZ  C   3  -0.12196    -0.16744     0.29877     0.32000    -0.18496    -0.24210
  
  S  C   4   0.01360    -0.01685     0.00937    -0.00200    -0.04330     0.01336
 PX  C   4  -0.00710     0.00777    -0.01201    -0.00717     0.00772     0.00605
 PY  C   4   0.00580    -0.00620    -0.00843    -0.00190    -0.00110     0.00319
 PZ  C   4  -0.11803     0.05321    -0.35790     0.19370     0.33261    -0.18989
  
  S  C   5  -0.02142     0.03217     0.00085    -0.03202     0.03006     0.01682
 PX  C   5  -0.00673     0.00815     0.00163     0.00026     0.00982    -0.00480
 PY  C   5   0.00979    -0.01318     0.00074     0.01393    -0.00643    -0.00837
 PZ  C   5  -0.26014     0.30434     0.12304    -0.34522     0.01477     0.21349
  
  S  C   6   0.01524    -0.02267     0.00173     0.02355    -0.02234    -0.01354
 PX  C   6  -0.00285     0.00587    -0.01200    -0.00512     0.01112     0.00385
 PY  C   6  -0.00857     0.01283    -0.01995    -0.00986     0.02008     0.00562
 PZ  C   6   0.20158    -0.27351     0.19063     0.23106    -0.30277    -0.13164
  
  S  C   7   0.00922     0.00974    -0.00468    -0.00382    -0.00892     0.01025
 PX  C   7  -0.01118     0.01336    -0.01011     0.01540     0.00371    -0.01764
 PY  C   7   0.01200     0.00514    -0.00948    -0.00300     0.00324     0.00578
 PZ  C   7   0.37929    -0.19173    -0.05969    -0.25272     0.12872     0.34261
  
  S  C   8  -0.02525     0.01797    -0.00341     0.01521     0.04312    -0.02493
 PX  C   8  -0.01352     0.00781     0.00390     0.00986     0.00733    -0.00762
 PY  C   8   0.00467    -0.00268     0.00463    -0.00012    -0.00836    -0.00032
 PZ  C   8   0.38698    -0.18525    -0.04613    -0.18231    -0.27940     0.28332
  
  S  C   9  -0.00231    -0.00298     0.01089    -0.00456    -0.01776    -0.00736
 PX  C   9  -0.01336    -0.00124    -0.03672     0.00275     0.01010     0.00748
 PY  C   9  -0.00342    -0.02280    -0.01695    -0.00769     0.00048     0.01961
 PZ  C   9  -0.04130     0.11107     0.41337     0.02507     0.05236    -0.24862
  
  S  C  10   0.00498    -0.03564     0.02276    -0.01273     0.00729     0.00612
 PX  C  10   0.00376    -0.01928     0.01904    -0.01589     0.00215    -0.00315
 PY  C  10  -0.00007    -0.00215    -0.00046     0.00032    -0.00063     0.00932
 PZ  C  10  -0.03050     0.33312    -0.26694    -0.00829     0.00862    -0.27489
  
  S  C  11  -0.01195     0.01542    -0.01795     0.03846    -0.02581     0.04105
 PX  C  11   0.02643     0.00823     0.01053    -0.00532     0.00832    -0.00202
 PY  C  11   0.03338     0.02863     0.00694    -0.00865     0.01276    -0.01899
 PZ  C  11  -0.33828    -0.21279    -0.11052     0.24330    -0.19779     0.32037
  
  S  H  12   0.00427     0.00212     0.00708    -0.01595     0.01780    -0.02534
  
  S  C  13   0.01626     0.01883     0.00482     0.00252     0.01073    -0.01444
 PX  C  13   0.02602     0.01820     0.01455    -0.00378    -0.00697    -0.01754
 PY  C  13   0.02226     0.01690     0.00904    -0.00928    -0.01769    -0.02706
 PZ  C  13  -0.33984    -0.23490    -0.05018     0.15905     0.20486     0.35590
  
  S  H  14  -0.00330     0.00139     0.00138     0.00235     0.00673    -0.00523
  
  S  H  15   0.00202     0.00103     0.00127    -0.00035    -0.00786     0.00186
  
  S  H  16   0.00416    -0.01010     0.00199     0.01340     0.00756    -0.01211
  
  S  H  17   0.00723    -0.01533     0.00268     0.02117    -0.01597    -0.01356
  
  S  H  18  -0.01073     0.01498     0.00141    -0.01494     0.01298     0.00826
  
  S  H  19   0.01137    -0.00465     0.00064    -0.00928    -0.02183     0.01815
  
  S  H  20  -0.01022    -0.00256    -0.00445     0.00764    -0.00066     0.01370
  
  S  C  21  -0.00069     0.01419    -0.01405     0.02433    -0.02061     0.02375
 PX  C  21   0.02082     0.01122     0.02206    -0.00269     0.02315    -0.00577
 PY  C  21   0.02292     0.02990     0.01211     0.02377     0.01295     0.01776
 PZ  C  21   0.21052     0.33178     0.11127     0.28138     0.15715     0.21772
  
  S  C  22   0.00649    -0.00709     0.01555    -0.01897     0.02645    -0.01509
 PX  C  22  -0.02136    -0.01038    -0.03980    -0.00451    -0.04701    -0.01065
 PY  C  22  -0.01820    -0.01101    -0.02215    -0.00193    -0.02015    -0.00117
 PZ  C  22  -0.18531    -0.14276    -0.30029    -0.09111    -0.34579    -0.11932
  
  S  C  23   0.00565     0.00305    -0.01235    -0.00397    -0.02757    -0.00784
 PX  C  23  -0.03063    -0.04432     0.02101    -0.03093     0.04045    -0.01071
 PY  C  23   0.00000    -0.00331     0.00961    -0.00565     0.01395    -0.00297
 PZ  C  23  -0.19715    -0.31739     0.15445    -0.23964     0.28992    -0.08027
  
  S  C  24  -0.00268    -0.00269     0.00677    -0.00611     0.02407    -0.00902
 PX  C  24   0.03380     0.04740     0.00833     0.04370    -0.01412     0.02846
 PY  C  24  -0.01414    -0.02611    -0.01453    -0.02668    -0.00932    -0.01484
 PZ  C  24   0.22251     0.35268     0.10751     0.34526    -0.05866     0.21037
  
  S  H  25  -0.00521    -0.00620     0.00561    -0.00462     0.01099    -0.00461
  
  S  H  26  -0.00426     0.01032    -0.01062     0.02175    -0.01645     0.01828
  
  S  H  27  -0.00176     0.00385     0.01251     0.01229     0.01986     0.01337
  
  S  H  28  -0.00320     0.00339    -0.00081     0.01429    -0.01076     0.01596
  
  S  C  29   0.00968    -0.02147     0.02958    -0.04727     0.03829    -0.04934
 PX  C  29  -0.00765    -0.00179    -0.01082     0.00223    -0.01312     0.00290
 PY  C  29  -0.02055    -0.00188    -0.01461     0.01321    -0.00876     0.01011
 PZ  C  29   0.15371    -0.12579     0.31516    -0.27829     0.24486    -0.20833
  
  S  C  30  -0.00318    -0.00547    -0.02075     0.00379    -0.03570     0.01711
 PX  C  30  -0.01751    -0.00545     0.00863     0.01316     0.01151     0.01497
 PY  C  30   0.00423    -0.00311     0.01181    -0.00965     0.01371    -0.00887
 PZ  C  30   0.15462     0.07530    -0.32318    -0.20195    -0.29338    -0.27622




    ROOT NO.   49          50          51          52          53          54

             2.35405     2.52686     2.80695     3.10071     3.31656     3.39668
  
  
  S  C   1   0.09215    -0.05765     0.16846     0.03191    -0.07055     0.27312
 PX  C   1   0.01042    -0.03696     0.03100    -0.02278    -0.05983     0.02640
 PY  C   1  -0.00268    -0.02997     0.02737    -0.01231     0.06060     0.02520
 PZ  C   1   0.20384     0.24337     0.01304     0.24814    -0.04187    -0.01678
  
  S  C   2  -0.13799     0.10466    -0.22993    -0.00534     0.14154    -0.25884
 PX  C   2  -0.01338     0.02903    -0.01174     0.02875     0.01892     0.05104
 PY  C   2  -0.03400     0.05062    -0.05338     0.03038     0.02705    -0.01067
 PZ  C   2  -0.13982    -0.18575    -0.01435    -0.25483     0.03341     0.02895
  
  S  C   3   0.19636    -0.18125     0.28635    -0.05664    -0.12844     0.13788
 PX  C   3  -0.00254    -0.00927    -0.05485    -0.02185    -0.11137    -0.06999
 PY  C   3   0.02389    -0.03316     0.02590    -0.02526     0.11884    -0.08060
 PZ  C   3   0.05183     0.06665     0.06155     0.30492    -0.05761     0.01081
  
  S  C   4  -0.20474     0.17761    -0.28513     0.04904    -0.23719     0.00442
 PX  C   4  -0.02367     0.03876    -0.00702     0.02129     0.05051     0.05168
 PY  C   4   0.01005    -0.00825     0.05616    -0.00634    -0.11817     0.11690
 PZ  C   4  -0.07369    -0.04401    -0.07235    -0.30192     0.04553    -0.00634
  
  S  C   5   0.14854    -0.08252     0.21567     0.02487     0.22502     0.09019
 PX  C   5   0.05063    -0.05229     0.05933    -0.02853     0.05955    -0.04971
 PY  C   5  -0.01314    -0.00793    -0.01561    -0.01959     0.00008    -0.03967
 PZ  C   5   0.14441     0.17922     0.00552     0.25402    -0.08225    -0.02087
  
  S  C   6  -0.10458     0.04156    -0.16814    -0.05516    -0.13203    -0.19308
 PX  C   6  -0.01473     0.02712    -0.03330     0.01110    -0.00963    -0.01899
 PY  C   6  -0.00410     0.02710    -0.01583     0.01726    -0.08937     0.05037
 PZ  C   6  -0.20327    -0.24441    -0.00059    -0.24557     0.06230     0.03351
  
  S  C   7  -0.17609     0.15909    -0.14380     0.05477     0.27528     0.04490
 PX  C   7   0.01106    -0.02281     0.09266    -0.00144     0.03183     0.10223
 PY  C   7  -0.03501     0.02679     0.01382     0.00407     0.05426     0.05943
 PZ  C   7   0.10796     0.07514    -0.03003    -0.14771     0.03902    -0.03681
  
  S  C   8   0.17803    -0.17071     0.15404    -0.04960     0.24134    -0.21666
 PX  C   8   0.00516    -0.01230    -0.07273    -0.00109    -0.03415    -0.10700
 PY  C   8  -0.03099     0.02430    -0.05608     0.00595    -0.03272    -0.02657
 PZ  C   8  -0.06862    -0.12511     0.05334     0.13955    -0.01038     0.01817
  
  S  C   9  -0.16259     0.17738    -0.01561     0.02726    -0.09149     0.34404
 PX  C   9  -0.01448    -0.01519     0.07655    -0.01674     0.09710     0.00857
 PY  C   9   0.00271    -0.01163     0.03966    -0.02635    -0.13600    -0.00167
 PZ  C   9   0.24438     0.24850    -0.00375    -0.00615     0.04346    -0.11129
  
  S  C  10   0.19459    -0.16316     0.01489    -0.04993    -0.28863    -0.23333
 PX  C  10   0.00816     0.01010    -0.07793     0.00453    -0.06929     0.03452
 PY  C  10   0.00320    -0.00632    -0.03811     0.00862     0.11585    -0.09997
 PZ  C  10  -0.23064    -0.23509     0.01331     0.00052    -0.07391     0.07531
  
  S  C  11  -0.16481     0.18614     0.12729     0.02478     0.30543     0.08523
 PX  C  11   0.02273    -0.01034     0.06919    -0.02904    -0.05078    -0.07940
 PY  C  11  -0.03310     0.02278     0.05491    -0.02245     0.00817    -0.02063
 PZ  C  11   0.11280     0.05326     0.02042     0.13742    -0.02174    -0.10788
  
  S  H  12   0.08398    -0.11255    -0.08190    -0.01119    -0.15026    -0.06977
  
  S  C  13   0.14740    -0.16775    -0.11362     0.03405     0.15320    -0.21801
 PX  C  13   0.01727    -0.01901    -0.08791     0.03736     0.01439     0.06988
 PY  C  13  -0.01857     0.03443    -0.01836     0.02372    -0.00824     0.06592
 PZ  C  13  -0.09585    -0.12705    -0.06067    -0.13189    -0.00733     0.10015
  
  S  H  14   0.09286    -0.08508     0.08452    -0.03410    -0.12546    -0.04838
  
  S  H  15  -0.05656     0.03390    -0.09874    -0.01806     0.06096    -0.16353
  
  S  H  16   0.07645    -0.05734     0.13879     0.00887    -0.05316     0.16039
  
  S  H  17  -0.08266     0.04285    -0.12797    -0.01764    -0.10949    -0.07508
  
  S  H  18   0.06849    -0.02843     0.10869     0.03681     0.09609     0.11994
  
  S  H  19  -0.10230     0.09917    -0.10243     0.03720    -0.11705     0.13034
  
  S  H  20  -0.07787     0.08451     0.06665    -0.01885    -0.04363     0.12884
  
  S  C  21  -0.09801     0.14299     0.20427    -0.07141     0.12520    -0.16045
 PX  C  21   0.03737    -0.05831    -0.05008    -0.00756    -0.07921    -0.02938
 PY  C  21  -0.01186    -0.00786     0.01788    -0.00567    -0.03576    -0.04275
 PZ  C  21  -0.21434    -0.16622     0.10220     0.23606    -0.05605    -0.09434
  
  S  C  22   0.04082    -0.11774    -0.15823     0.12847     0.00717     0.21398
 PX  C  22   0.01831     0.04881     0.02018    -0.04122    -0.00563    -0.00540
 PY  C  22   0.00043     0.00987    -0.00601     0.02298     0.09583     0.02222
 PZ  C  22   0.29331     0.18479    -0.12922    -0.20915     0.04328     0.10165
  
  S  C  23  -0.04488     0.13439     0.18045    -0.16429    -0.19742    -0.18623
 PX  C  23  -0.01706    -0.04283    -0.01046     0.03021     0.04394    -0.04121
 PY  C  23  -0.00501    -0.02115    -0.01605     0.02284    -0.03445     0.03721
 PZ  C  23  -0.28002    -0.15683     0.13056     0.19364    -0.03086    -0.09517
  
  S  C  24   0.08769    -0.17518    -0.22926     0.15061     0.22496     0.09276
 PX  C  24   0.00449     0.02761    -0.00699     0.00217     0.01637     0.08014
 PY  C  24  -0.05048     0.04203     0.06190     0.01277    -0.01794     0.01839
 PZ  C  24   0.19778     0.10827    -0.11523    -0.21019     0.00386     0.09916
  
  S  H  25   0.05210    -0.08554    -0.12607     0.05604    -0.04971     0.10341
  
  S  H  26  -0.02765     0.07062     0.09545    -0.07227     0.01064    -0.13160
  
  S  H  27   0.03260    -0.08388    -0.11498     0.09795     0.13886     0.11317
  
  S  H  28  -0.04470     0.10467     0.13924    -0.10402    -0.12361    -0.07183
  
  S  C  29   0.16580    -0.21215    -0.26528     0.03106    -0.18990     0.05352
 PX  C  29  -0.02331     0.03183    -0.00043     0.01124    -0.00699     0.07600
 PY  C  29   0.00499    -0.02540    -0.06282     0.05183     0.13530     0.01221
 PZ  C  29   0.03286     0.08635    -0.06160    -0.28032     0.06298     0.12957
  
  S  C  30  -0.15468     0.22167     0.26960    -0.08609    -0.13609     0.02829
 PX  C  30   0.00161     0.01432     0.06392    -0.03500     0.05063    -0.10089
 PY  C  30   0.02447    -0.02261    -0.01940    -0.03470    -0.12220    -0.01362
 PZ  C  30  -0.04191    -0.02653     0.09359     0.27137    -0.00428    -0.13810




    ROOT NO.   55          56          57          58          59          60

             3.54901     3.70715     3.83194     3.85093     4.18376     4.22515
  
  
  S  C   1  -0.04000    -0.23436     0.30622    -0.04066    -0.13385    -0.01731
 PX  C   1   0.03942     0.03428    -0.01012     0.11318    -0.10226    -0.03044
 PY  C   1  -0.02763    -0.06080     0.01862    -0.10037     0.06504     0.00527
 PZ  C   1  -0.10140     0.06858    -0.00400     0.00717    -0.00348     0.00115
  
  S  C   2  -0.03610     0.07317    -0.13364    -0.21011     0.28388     0.08000
 PX  C   2  -0.04465    -0.10342     0.13384    -0.09017    -0.02222    -0.00265
 PY  C   2  -0.03552    -0.03747     0.06722    -0.04441    -0.06263    -0.02454
 PZ  C   2   0.13096    -0.09625     0.02221     0.00707    -0.03240    -0.01639
  
  S  C   3   0.11557     0.11385    -0.16047     0.27482     0.01259     0.05463
 PX  C   3   0.04591     0.03677     0.04940    -0.00839     0.13666     0.10149
 PY  C   3  -0.00785     0.05588    -0.15474    -0.06485     0.10374     0.00159
 PZ  C   3  -0.22157     0.14774    -0.00638     0.00684     0.01939     0.02227
  
  S  C   4   0.00132    -0.09476     0.30751    -0.01191    -0.04017     0.04321
 PX  C   4  -0.04124    -0.08496     0.00763    -0.12473     0.15886     0.05490
 PY  C   4   0.05562     0.00402    -0.03236     0.13086     0.08809     0.09283
 PZ  C   4   0.21986    -0.15287     0.01740    -0.01983     0.00369    -0.01032
  
  S  C   5  -0.08974    -0.09868    -0.11075    -0.23290     0.31273     0.08941
 PX  C   5   0.02810     0.08929    -0.14153     0.07853    -0.04335    -0.02229
 PY  C   5   0.02233     0.05014    -0.06968     0.03140     0.04196     0.01784
 PZ  C   5  -0.11370     0.10969     0.00052     0.05427    -0.04167    -0.00434
  
  S  C   6   0.12408     0.25480    -0.19262     0.28054    -0.10418    -0.01355
 PX  C   6  -0.00589     0.00536     0.01250    -0.00734    -0.02425    -0.01887
 PY  C   6   0.01159    -0.03068     0.11670     0.06784    -0.14636    -0.03616
 PZ  C   6   0.08757    -0.09756     0.02603    -0.04147     0.00904    -0.00374
  
  S  C   7  -0.13651    -0.13175    -0.06213    -0.11263    -0.24471    -0.23225
 PX  C   7   0.01019     0.01881    -0.10421     0.12738    -0.04469    -0.00043
 PY  C   7   0.00122    -0.01265    -0.05129     0.06863     0.02085     0.05287
 PZ  C   7   0.21612    -0.13090    -0.01783     0.00923    -0.00745    -0.01512
  
  S  C   8  -0.03950     0.12793    -0.07205    -0.09303    -0.25551    -0.21118
 PX  C   8  -0.00161     0.00119     0.17986    -0.03098    -0.02286     0.04881
 PY  C   8  -0.00433    -0.00582     0.06044    -0.00671    -0.08392    -0.04029
 PZ  C   8  -0.21676     0.14266     0.00383    -0.00179    -0.02332    -0.00363
  
  S  C   9   0.03946    -0.09576    -0.26736     0.13214     0.13694    -0.06363
 PX  C   9  -0.02793     0.05163    -0.09273    -0.03981    -0.08530    -0.12314
 PY  C   9   0.03083     0.05974     0.02441    -0.07622     0.08862    -0.10572
 PZ  C   9   0.29977    -0.17807    -0.02138    -0.01156    -0.01638    -0.03420
  
  S  C  10   0.06337     0.09817     0.24170    -0.14660     0.11205    -0.02307
 PX  C  10  -0.02373    -0.06544    -0.07304    -0.05676     0.03125    -0.16937
 PY  C  10  -0.04939    -0.00895     0.05912    -0.07624    -0.13458    -0.03995
 PZ  C  10  -0.28900     0.19849     0.06131    -0.01805     0.02333     0.02230
  
  S  C  11   0.07132     0.05827     0.02103     0.13703    -0.12245     0.33501
 PX  C  11   0.04845     0.08684     0.14616    -0.02393     0.02382     0.04201
 PY  C  11   0.00579     0.06214     0.07008    -0.00960     0.04464    -0.07854
 PZ  C  11   0.19410    -0.14441    -0.03717    -0.01988     0.00250    -0.05574
  
  S  H  12  -0.07333    -0.04418    -0.00202    -0.07722     0.09643    -0.31681
  
  S  C  13  -0.09360    -0.09753     0.14450     0.10279    -0.12515     0.33905
 PX  C  13  -0.02626    -0.09116    -0.07323     0.11137     0.04797    -0.03327
 PY  C  13   0.01577    -0.04921    -0.05840     0.06533     0.00422     0.03788
 PZ  C  13  -0.21735     0.12155     0.02644     0.01472     0.00221     0.03722
  
  S  H  14   0.08647     0.09060     0.03656     0.07122     0.20311     0.22313
  
  S  H  15   0.01498     0.13449    -0.18591     0.01103     0.06002    -0.01079
  
  S  H  16   0.00792    -0.05129     0.07886     0.12977    -0.23859    -0.08697
  
  S  H  17   0.04951     0.06798     0.06868     0.14515    -0.26469    -0.09485
  
  S  H  18  -0.08674    -0.16679     0.13076    -0.18891     0.03307    -0.01585
  
  S  H  19   0.01380    -0.10308     0.05999     0.05141     0.23279     0.21788
  
  S  H  20   0.04970     0.07660    -0.08390    -0.05594     0.09006    -0.29583
  
  S  C  21  -0.06705    -0.00123     0.23586     0.25101     0.21391    -0.21089
 PX  C  21  -0.08886    -0.11818    -0.07214     0.05366     0.03793    -0.04284
 PY  C  21  -0.05170    -0.07496    -0.04848     0.01797    -0.02373     0.03535
 PZ  C  21   0.11564    -0.09132    -0.03902    -0.02433    -0.00695    -0.01323
  
  S  C  22   0.24558     0.22228    -0.01771    -0.25381    -0.09561     0.04901
 PX  C  22  -0.01562     0.01191     0.00807    -0.00782     0.01052    -0.03186
 PY  C  22   0.05873     0.07817     0.11748     0.06504     0.08371    -0.08081
 PZ  C  22  -0.06754     0.08491     0.02071    -0.00721    -0.00805     0.01897
  
  S  C  23  -0.24885    -0.23976    -0.16994     0.01375    -0.06073     0.04548
 PX  C  23  -0.04036    -0.06596     0.03007     0.12475     0.07822    -0.07471
 PY  C  23   0.04432     0.03120    -0.04363    -0.09414    -0.05030     0.02326
 PZ  C  23   0.06743    -0.07167    -0.02281    -0.00847    -0.01440     0.01212
  
  S  C  24   0.06762     0.01753     0.13721     0.24566     0.18877    -0.18079
 PX  C  24   0.10275     0.13798     0.05435    -0.08601    -0.00453    -0.00071
 PY  C  24   0.07707     0.07071     0.04273    -0.04222     0.03770    -0.05276
 PZ  C  24  -0.10655     0.07447     0.01114     0.00295     0.01219    -0.01061
  
  S  H  25   0.04975    -0.00150    -0.15951    -0.16194    -0.17954     0.20416
  
  S  H  26  -0.14813    -0.13971     0.00878     0.16035     0.03595     0.01859
  
  S  H  27   0.15219     0.15575     0.11786    -0.00292     0.02295     0.01094
  
  S  H  28  -0.05683    -0.00983    -0.08331    -0.16387    -0.16137     0.18172
  
  S  C  29  -0.13456    -0.21181    -0.25280    -0.02791    -0.02489    -0.03764
 PX  C  29   0.06165     0.05329    -0.07326    -0.12038    -0.10729     0.11789
 PY  C  29  -0.02831    -0.07914    -0.01778     0.14125    -0.02958     0.12742
 PZ  C  29  -0.18731     0.17735     0.07781     0.02067     0.00505     0.03677
  
  S  C  30   0.15273     0.22585     0.04847    -0.26332    -0.02116    -0.06546
 PX  C  30  -0.02283     0.01935     0.07769    -0.01065    -0.07467     0.15647
 PY  C  30  -0.07150    -0.07611    -0.12924    -0.08885    -0.07254     0.04320
 PZ  C  30   0.19550    -0.15623    -0.04165     0.00552    -0.01084    -0.00687




    ROOT NO.   61          62          63          64          65          66

             5.25183     5.41928     5.51525     5.69644     6.16919     6.41195
  
  
  S  C   1  -0.04895    -0.01817    -0.26331    -0.22126    -0.09336     0.04374
 PX  C   1   0.09895    -0.00462     0.03256     0.17196     0.12696    -0.06482
 PY  C   1  -0.06273     0.02399     0.26039     0.09695     0.02683    -0.01589
 PZ  C   1  -0.00527     0.00230     0.02755     0.01443     0.00720    -0.00392
  
  S  C   2  -0.13849     0.00902    -0.02940    -0.20397    -0.13894     0.07263
 PX  C   2  -0.05753    -0.01000    -0.18382    -0.18066    -0.08300     0.04370
 PY  C   2   0.02721    -0.00214     0.02382     0.13407     0.18692    -0.13703
 PZ  C   2   0.01432    -0.00130    -0.00584     0.01821     0.01893    -0.01238
  
  S  C   3   0.05301    -0.00054     0.07848    -0.00771    -0.14252     0.11819
 PX  C   3  -0.15708     0.00691     0.02966    -0.09226     0.06453    -0.09983
 PY  C   3  -0.02717     0.00657    -0.00982    -0.11026    -0.16244     0.13577
 PZ  C   3  -0.00782    -0.00074    -0.00261    -0.00960    -0.00555     0.00370
  
  S  C   4  -0.06114    -0.00318    -0.01208     0.03586     0.15311    -0.14258
 PX  C   4   0.10581    -0.01042    -0.07123     0.10130     0.08787    -0.05272
 PY  C   4   0.10428    -0.00630     0.07913     0.06025    -0.14452     0.15199
 PZ  C   4  -0.00031     0.00134     0.00685     0.00807     0.00814    -0.00527
  
  S  C   5   0.15990    -0.01884    -0.14742     0.12542     0.12438    -0.07136
 PX  C   5   0.02775    -0.00105     0.00083    -0.05069    -0.13954     0.12820
 PY  C   5   0.12430    -0.02442    -0.23030     0.05413     0.13967    -0.10745
 PZ  C   5  -0.01164     0.00027     0.00187    -0.01403    -0.00811     0.00266
  
  S  C   6   0.15602    -0.03120    -0.27622     0.00858     0.04593    -0.01978
 PX  C   6  -0.11621     0.03007     0.29905     0.02072    -0.05685     0.03272
 PY  C   6  -0.08314     0.00203    -0.03281    -0.14726    -0.10712     0.05825
 PZ  C   6  -0.01805     0.00333     0.02556    -0.00779    -0.01065     0.00561
  
  S  C   7   0.22136    -0.00644    -0.04318     0.10891    -0.08159     0.12146
 PX  C   7   0.07843    -0.00871     0.00702    -0.01363    -0.12128     0.10727
 PY  C   7  -0.06665    -0.00786     0.03940    -0.11375     0.04562    -0.21311
 PZ  C   7   0.00035     0.00059     0.00323    -0.00272    -0.00286     0.00034
  
  S  C   8  -0.18299     0.01255    -0.04768    -0.11127     0.08166    -0.09924
 PX  C   8   0.03618    -0.02504    -0.04377     0.12169    -0.00063     0.14572
 PY  C   8  -0.09536     0.00805    -0.03855    -0.08872     0.13968    -0.25320
 PZ  C   8  -0.01735    -0.00102    -0.00628    -0.00966     0.00512    -0.00440
  
  S  C   9  -0.01926     0.03758     0.07422    -0.15477    -0.00735    -0.18517
 PX  C   9  -0.13635     0.00812    -0.02799    -0.07075     0.06292    -0.06528
 PY  C   9  -0.10296     0.02356    -0.04937     0.09207     0.08251     0.15419
 PZ  C   9  -0.00781     0.00333    -0.00826     0.00964     0.00948     0.01694
  
  S  C  10  -0.03152     0.01729    -0.04262     0.14507     0.05133     0.15201
 PX  C  10   0.14510     0.02344     0.04102    -0.03145    -0.08675    -0.07922
[...]
  S   H   18   -0.0720    0.0410   -0.0243   -0.0554    0.0132    0.0019    0.3100   -0.0662
  S   H   19   -0.1459    0.2630    0.2277    0.1778    0.0380   -0.0060    0.0644    0.1757
  S   H   20    0.1780    0.2392    0.2918   -0.1334   -0.0656    0.0429   -0.0212   -0.2229
  S   C   21    0.1121    0.0474   -0.0229    0.0086    0.0070    0.0606    0.0002   -0.0110
  Px  C   21    0.1431    0.0972   -0.1287    0.1373    0.3064   -0.0925    0.0020    0.0849
  Py  C   21   -0.1344   -0.0747    0.0388   -0.0408   -0.0852    0.2928    0.0007    0.0134
  Pz  C   21    0.0013    0.0012   -0.0026    0.0006   -0.0029   -0.0201   -0.0002   -0.0061
  S   C   22    0.0459    0.0150    0.0311   -0.0251   -0.0506   -0.1199   -0.0007   -0.0342
  Px  C   22    0.0639    0.0269    0.0269   -0.0228   -0.0378    0.5274    0.0037    0.1228
  Py  C   22    0.0822    0.0341   -0.0219    0.0207    0.0491   -0.0658    0.0001   -0.0267
  Pz  C   22   -0.0126   -0.0066    0.0020   -0.0014   -0.0037   -0.0622   -0.0005   -0.0147
  S   C   23   -0.0542   -0.0208    0.0244   -0.0204   -0.0425    0.1127    0.0006    0.0199
  Px  C   23   -0.1077   -0.0441   -0.0147    0.0122    0.0322   -0.1895   -0.0026    0.0029
  Py  C   23   -0.0192   -0.0117    0.0412   -0.0376   -0.0739   -0.4543   -0.0032   -0.0971
  Pz  C   23    0.0158    0.0080    0.0043   -0.0029   -0.0058    0.0370    0.0003    0.0027
  S   C   24   -0.1081   -0.0476   -0.0272    0.0107    0.0093   -0.0495    0.0002    0.0320
  Px  C   24    0.0529    0.0250   -0.0249    0.0285    0.0725   -0.1696   -0.0017   -0.0017
  Py  C   24   -0.1758   -0.1087   -0.1537    0.1503    0.2946    0.1860   -0.0037   -0.1447
  Pz  C   24   -0.0196   -0.0132   -0.0158    0.0120    0.0180    0.0330    0.0002   -0.0080
  S   H   25   -0.2036   -0.1112    0.0948   -0.0909   -0.1903    0.1787   -0.0004   -0.0182
  S   H   26   -0.0835   -0.0353   -0.0234    0.0163    0.0233   -0.3308   -0.0024   -0.0785
  S   H   27    0.0934    0.0408   -0.0218    0.0181    0.0313    0.2898    0.0028    0.0489
  S   H   28    0.1944    0.1049    0.1103   -0.0973   -0.1785   -0.1476    0.0014    0.0726
  S   C   29    0.1615    0.1141   -0.0797    0.1047    0.2656    0.0107   -0.0006    0.0151
  Px  C   29   -0.0811   -0.0379    0.0032    0.0321    0.1136   -0.0809    0.0030    0.1120
  Py  C   29    0.1714    0.1247    0.0329   -0.0581   -0.1506   -0.0334   -0.0000    0.1093
  Pz  C   29   -0.0123   -0.0064    0.0098   -0.0134   -0.0311   -0.0037    0.0000    0.0020
  S   C   30   -0.1507   -0.0923   -0.0959    0.1131    0.2572   -0.0056    0.0001   -0.0070
  Px  C   30   -0.1128   -0.1040   -0.0060   -0.0098   -0.0714    0.0580   -0.0031   -0.2100
  Py  C   30    0.1459    0.1029   -0.0003    0.0462    0.1663    0.0531   -0.0060   -0.0773
  Pz  C   30    0.0105    0.0072    0.0129   -0.0096   -0.0166    0.0034   -0.0002   -0.0102


   Root No.      73        74        75        76        77        78        79        80

                73 A      74 A      75 A      76 A      77 A      78 A      79 A      80 A   

                 9.373     9.595    10.220    10.594    11.051    11.526    11.947    12.063
  
  S   C    1    0.0370   -0.0560    0.0563   -0.0625   -0.0504    0.0278    0.0240   -0.0058
  Px  C    1    0.1841   -0.2287   -0.0541   -0.2030    0.1545   -0.0479   -0.1726    0.2245
  Py  C    1    0.0731   -0.1089    0.2053   -0.0832   -0.2127    0.0922    0.1530   -0.1402
  Pz  C    1    0.0196   -0.0269    0.0210   -0.0227   -0.0161    0.0088    0.0071   -0.0018
  S   C    2   -0.0810    0.0782    0.0653    0.0292   -0.0897    0.0548    0.0367   -0.0144
  Px  C    2    0.1636   -0.2158    0.0076   -0.2259    0.0595    0.0200   -0.1334    0.2245
  Py  C    2   -0.2444    0.1754    0.1988   -0.0439   -0.2031    0.1644    0.0069    0.1047
  Pz  C    2   -0.0023   -0.0017    0.0049   -0.0088   -0.0021    0.0048   -0.0063    0.0126
  S   C    3   -0.0091    0.0393    0.0010    0.0613   -0.0282    0.0090    0.0162   -0.0224
  Px  C    3   -0.1991    0.1249    0.2662   -0.0554   -0.0210   -0.2120    0.0136   -0.1452
  Py  C    3   -0.0805    0.0262    0.1168   -0.1026   -0.2503    0.3580   -0.0516    0.3100
  Pz  C    3   -0.0073    0.0049    0.0132   -0.0031   -0.0049   -0.0047    0.0018   -0.0040
  S   C    4   -0.0206    0.0421    0.0031    0.0651    0.0257   -0.0221   -0.0237    0.0127
  Px  C    4   -0.1175    0.1006   -0.2446   -0.0839    0.2384   -0.1617    0.0739   -0.1434
  Py  C    4   -0.0647    0.1068   -0.1518    0.0172   -0.1148    0.3705   -0.0276    0.2981
  Pz  C    4    0.0039   -0.0033    0.0091    0.0052   -0.0065    0.0027   -0.0025    0.0038
  S   C    5   -0.0716    0.0781   -0.0684    0.0371    0.0879   -0.0538   -0.0345    0.0151
  Px  C    5   -0.0599    0.0267   -0.1657   -0.1410    0.1494   -0.1178    0.1083   -0.1701
  Py  C    5    0.2515   -0.2764    0.0937   -0.1912   -0.1384    0.0798    0.1372   -0.1168
  Pz  C    5    0.0150   -0.0163    0.0123   -0.0082   -0.0153    0.0098    0.0057   -0.0019
  S   C    6    0.0566   -0.0631   -0.0539   -0.0655    0.0523   -0.0199   -0.0089    0.0104
  Px  C    6    0.1665   -0.1667   -0.1534   -0.1474    0.1233   -0.0422   -0.0196    0.0253
  Py  C    6    0.1000   -0.1396    0.1582   -0.1516   -0.2307    0.1028    0.2480   -0.2435
  Pz  C    6    0.0127   -0.0152    0.0081   -0.0143   -0.0141    0.0052    0.0192   -0.0202
  S   C    7    0.0835   -0.0168   -0.0763    0.0737   -0.0405    0.0572    0.0412   -0.0020
  Px  C    7   -0.1392    0.1280    0.1845    0.0250   -0.0491   -0.1723    0.0641   -0.1702
  Py  C    7    0.2498    0.0023   -0.1145    0.2254   -0.1253    0.0480    0.1436   -0.0670
  Pz  C    7   -0.0155    0.0051    0.0121   -0.0065    0.0039   -0.0096   -0.0027   -0.0045
  S   C    8    0.0507   -0.0270    0.0799    0.0776    0.0263   -0.0588   -0.0592   -0.0056
  Px  C    8    0.0575    0.0609   -0.0055    0.2089    0.0979    0.0575   -0.1584    0.1496
  Py  C    8   -0.1641    0.1356   -0.2148   -0.0891   -0.0088    0.1724    0.0554    0.1228
  Pz  C    8    0.0053    0.0015    0.0066    0.0163    0.0085   -0.0034   -0.0134    0.0074
  S   C    9    0.0045   -0.0365    0.0449    0.0031    0.0010   -0.0289   -0.0340    0.0013
  Px  C    9    0.1018    0.0208    0.0773    0.2638    0.1414   -0.0156   -0.2072    0.1310
  Py  C    9    0.0415   -0.0334   -0.1142    0.1248    0.0698    0.0224    0.3942    0.0078
  Pz  C    9    0.0085    0.0024   -0.0021    0.0243    0.0125    0.0016    0.0077    0.0095
  S   C   10   -0.0065   -0.0376   -0.0556   -0.0087    0.0009    0.0324    0.0353   -0.0070
  Px  C   10    0.1967    0.0073    0.0553    0.2443   -0.1823   -0.0089   -0.2296   -0.0999
  Py  C   10    0.0924    0.0542   -0.1147    0.1240   -0.1018    0.0217    0.3755   -0.1129
  Pz  C   10    0.0106   -0.0033   -0.0034    0.0110   -0.0095    0.0023   -0.0032   -0.0060
  S   C   11   -0.0873   -0.0390   -0.0753   -0.0826    0.0410    0.0560    0.0411   -0.0145
  Px  C   11    0.1279   -0.0338   -0.0148    0.1927   -0.1264    0.0538   -0.1914   -0.1159
  Py  C   11   -0.2177   -0.1475   -0.1964   -0.1063    0.0271    0.1616   -0.0080   -0.1249
  Pz  C   11   -0.0067   -0.0145   -0.0175    0.0076   -0.0099    0.0153   -0.0155   -0.0176
  S   H   12   -0.1379   -0.0640   -0.0944   -0.0876    0.0475    0.0742    0.0489   -0.0379
  S   C   13   -0.0443   -0.0341    0.0714   -0.0753   -0.0277   -0.0602   -0.0526    0.0126
  Px  C   13   -0.0889   -0.1523    0.1655    0.0299    0.0327   -0.1776    0.0647    0.1449
  Py  C   13    0.1341    0.0389   -0.0965    0.2243    0.0888    0.0453    0.1646    0.0186
  Pz  C   13    0.0009   -0.0081    0.0059    0.0126    0.0071   -0.0078    0.0119    0.0095
  S   H   14    0.1649   -0.0312   -0.1073    0.0967   -0.0532    0.0773    0.0603    0.0176
  S   H   15    0.1098   -0.1456    0.0820   -0.1188   -0.0504    0.0303    0.0164    0.0083
  S   H   16   -0.1697    0.1439    0.1021    0.0310   -0.1233    0.0854    0.0381   -0.0004
  S   H   17   -0.1440    0.1457   -0.0894    0.0571    0.1133   -0.0802   -0.0403    0.0066
  S   H   18    0.0950   -0.0945   -0.0948   -0.0835    0.0773   -0.0289   -0.0150    0.0164
  S   H   19    0.0969   -0.0594    0.1107    0.0787    0.0284   -0.0808   -0.0645   -0.0326
  S   H   20   -0.0919   -0.0629    0.0967   -0.0925   -0.0407   -0.0816   -0.0643    0.0381
  S   C   21    0.0699    0.0878    0.0767   -0.0263    0.1022    0.0484    0.0547    0.0226
  Px  C   21   -0.1083   -0.0528   -0.1638   -0.1635   -0.1503   -0.1435    0.0833    0.1499
  Py  C   21    0.2109    0.2918    0.1143   -0.1706    0.1661    0.0466    0.1613    0.1233
  Pz  C   21   -0.0136   -0.0247   -0.0051    0.0243   -0.0136   -0.0003   -0.0224   -0.0194
  S   C   22   -0.0417   -0.0784    0.0322    0.0826    0.0254    0.0148    0.0087   -0.0017
  Px  C   22    0.0878    0.1739   -0.1077   -0.1728   -0.0809   -0.0345   -0.0427   -0.0181
  Py  C   22    0.0984    0.1463    0.1557   -0.1139    0.2370    0.0515    0.2860    0.2262
  Pz  C   22   -0.0178   -0.0320    0.0072    0.0297    0.0007    0.0041   -0.0096   -0.0109
  S   C   23   -0.0531   -0.0775   -0.0503    0.0698   -0.0527   -0.0172   -0.0126   -0.0025
  Px  C   23    0.1537    0.2480   -0.0395   -0.2495   -0.1076   -0.0270   -0.2378   -0.1910
  Py  C   23    0.0908    0.0980    0.1789   -0.0405    0.1977    0.0514    0.1726    0.1264
  Pz  C   23   -0.0221   -0.0338   -0.0030    0.0316    0.0029   -0.0015    0.0230    0.0206
  S   C   24    0.0625    0.0915   -0.0608   -0.0502   -0.0890   -0.0489   -0.0433   -0.0125
  Px  C   24    0.1551    0.2518    0.0152   -0.2638   -0.0126    0.0289   -0.2010   -0.1909
  Py  C   24   -0.1760   -0.2134    0.1876   -0.0029    0.2259    0.1515   -0.0217   -0.0912
  Pz  C   24   -0.0313   -0.0469    0.0137    0.0347    0.0233    0.0107    0.0261    0.0169
  S   H   25    0.1354    0.1562    0.1020   -0.0318    0.1266    0.0710    0.0509    0.0097
  S   H   26   -0.0484   -0.1022    0.0691    0.1056    0.0528    0.0251    0.0245    0.0080
  S   H   27   -0.0951   -0.1308   -0.0733    0.1029   -0.0599   -0.0179   -0.0047    0.0029
  S   H   28    0.1344    0.1793   -0.0879   -0.0731   -0.1171   -0.0710   -0.0466   -0.0064
  S   C   29    0.0058    0.0403    0.0103   -0.0599    0.0370    0.0108    0.0273    0.0181
  Px  C   29   -0.1502   -0.1059   -0.2425   -0.1376   -0.2460   -0.1846    0.0440    0.1317
  Py  C   29   -0.1019   -0.1065   -0.1387    0.0032    0.1345    0.3555   -0.0918   -0.2691
  Pz  C   29   -0.0050   -0.0081   -0.0052    0.0061    0.0036    0.0139   -0.0040   -0.0117
  S   C   30    0.0128    0.0415   -0.0049   -0.0611   -0.0187   -0.0040   -0.0218   -0.0177
  Px  C   30   -0.1039   -0.1564    0.2305   -0.0369    0.0123   -0.2259    0.0134    0.1438
  Py  C   30   -0.0718   -0.0540    0.1432   -0.0758    0.3076    0.3433   -0.1080   -0.2664
  Pz  C   30   -0.0059   -0.0093    0.0106    0.0005   -0.0006   -0.0123    0.0006    0.0074


   Root No.      81        82        83        84

                81 A      82 A      83 A      84 A   

                12.595    12.835    13.138    14.468
  
  S   C    1    0.0570    0.0041   -0.0055    0.0349
  Px  C    1    0.1704    0.2587    0.1520    0.1031
  Py  C    1    0.0505   -0.1406   -0.1031    0.0233
  Pz  C    1    0.0156   -0.0001   -0.0025    0.0081
  S   C    2    0.0118   -0.0140   -0.0152    0.0260
  Px  C    2    0.2154    0.2623    0.1414    0.1449
  Py  C    2    0.1421    0.0968    0.0264    0.1214
  Pz  C    2    0.0109    0.0135    0.0069    0.0079
  S   C    3   -0.0173   -0.0036    0.0076    0.0206
  Px  C    3    0.2632    0.1663    0.1892    0.2315
  Py  C    3    0.1082    0.1422   -0.0068    0.1008
  Pz  C    3    0.0129    0.0084    0.0074    0.0114
  S   C    4   -0.0134    0.0007   -0.0050    0.0234
  Px  C    4    0.2842   -0.1585   -0.1606    0.2131
  Py  C    4    0.0898   -0.0382   -0.1906    0.1221
  Pz  C    4   -0.0122    0.0075    0.0074   -0.0074
  S   C    5    0.0208    0.0163    0.0078    0.0282
  Px  C    5    0.2766   -0.1705   -0.1539    0.1753
  Py  C    5    0.1149   -0.1443   -0.1213    0.0500
  Pz  C    5   -0.0015   -0.0027   -0.0017   -0.0032
  S   C    6    0.0663    0.0045   -0.0088    0.0374
  Px  C    6    0.1344    0.0129   -0.0158    0.0733
  Py  C    6    0.1299   -0.2655   -0.2044    0.0617
  Pz  C    6    0.0118   -0.0212   -0.0161    0.0054
  S   C    7   -0.0661    0.0062   -0.0004    0.0120
  Px  C    7    0.2115    0.1751    0.1983    0.2545
  Py  C    7   -0.0313    0.1417    0.0929    0.1589
  Pz  C    7    0.0103    0.0032    0.0050    0.0060
  S   C    8   -0.0518   -0.0200    0.0086    0.0110
  Px  C    8    0.1101   -0.1889   -0.2219    0.2547
  Py  C    8    0.1603   -0.0296   -0.1471    0.1211
  Pz  C    8    0.0009   -0.0105   -0.0103    0.0126
  S   C    9   -0.0582   -0.0054   -0.0011    0.0062
  Px  C    9    0.0335   -0.1882   -0.2073    0.2557
  Py  C    9   -0.1270    0.3081   -0.1431    0.1425
  Pz  C    9   -0.0017    0.0034   -0.0219    0.0242
  S   C   10   -0.0672   -0.0013    0.0047   -0.0003
  Px  C   10    0.0341   -0.1407    0.2245    0.2728
  Py  C   10   -0.0112    0.3330    0.0853    0.1505
  Pz  C   10   -0.0059   -0.0033    0.0116    0.0137
  S   C   11   -0.0661   -0.0006    0.0162   -0.0047
  Px  C   11   -0.0462   -0.1558    0.2361    0.2731
  Py  C   11   -0.1588   -0.0513    0.1633    0.1419
  Pz  C   11   -0.0142   -0.0145    0.0281    0.0295
  S   H   12   -0.0563    0.0218    0.0205    0.0028
  S   C   13   -0.0534   -0.0210   -0.0060   -0.0065
  Px  C   13   -0.2431    0.0814   -0.2555    0.2547
  Py  C   13   -0.0372    0.1285   -0.1296    0.1563
  Pz  C   13   -0.0174    0.0107   -0.0210    0.0239
  S   H   14   -0.0614    0.0302   -0.0089    0.0083
  S   H   15    0.0820    0.0152   -0.0023    0.0420
  S   H   16    0.0129   -0.0186   -0.0244    0.0182
  S   H   17    0.0120    0.0255    0.0229    0.0156
  S   H   18    0.0722    0.0124   -0.0036    0.0368
  S   H   19   -0.0453   -0.0302    0.0249   -0.0059
  S   H   20   -0.0419   -0.0414   -0.0121   -0.0012
  S   C   21    0.0119   -0.0194    0.0246   -0.0246
  Px  C   21   -0.2190   -0.1794    0.1633    0.1868
  Py  C   21   -0.0980   -0.1527    0.1637    0.0669
  Pz  C   21    0.0192    0.0224   -0.0230   -0.0136
  S   C   22    0.0604    0.0183   -0.0165   -0.0403
  Px  C   22   -0.1167   -0.0139    0.0086    0.0741
  Py  C   22   -0.1026   -0.2454    0.2617    0.0840
  Pz  C   22    0.0206    0.0158   -0.0156   -0.0139
  S   C   23    0.0618    0.0064   -0.0005   -0.0385
  Px  C   23   -0.1789    0.1693   -0.2036    0.0899
  Py  C   23   -0.0413   -0.1223    0.1273    0.0347
  Pz  C   23    0.0233   -0.0174    0.0208   -0.0120
  S   C   24    0.0127    0.0167   -0.0207   -0.0264
  Px  C   24   -0.2240    0.1598   -0.1897    0.1295
  Py  C   24   -0.1509    0.0463   -0.0464    0.1200
  Pz  C   24    0.0162   -0.0151    0.0188   -0.0061
  S   H   25    0.0126   -0.0205    0.0332   -0.0157
  S   H   26    0.0679    0.0079   -0.0034   -0.0400
  S   H   27    0.0736    0.0048    0.0018   -0.0403
  S   H   28    0.0051    0.0217   -0.0331   -0.0154
  S   C   29   -0.0092   -0.0028   -0.0074   -0.0293
  Px  C   29   -0.2295   -0.1724    0.1632    0.2259
  Py  C   29   -0.0980   -0.0416    0.2151    0.1446
  Pz  C   29   -0.0028   -0.0020    0.0108    0.0092
  S   C   30    0.0019   -0.0022    0.0165   -0.0319
  Px  C   30   -0.2671    0.0633   -0.2460    0.2265
  Py  C   30   -0.1421    0.0881   -0.0113    0.1088
  Pz  C   30   -0.0133    0.0043   -0.0140    0.0128


              NET ATOMIC CHARGES AND DIPOLE CONTRIBUTIONS

  ATOM NO.   TYPE          CHARGE      No. of ELECS.   s-Pop       p-Pop       
    1          C          -0.026681        4.0267     1.08729     2.93939
    2          C          -0.029840        4.0298     1.09883     2.93101
    3          C           0.011616        3.9884     1.07208     2.91630
    4          C           0.011528        3.9885     1.07538     2.91309
    5          C          -0.030342        4.0303     1.10146     2.92888
    6          C          -0.023862        4.0239     1.09311     2.93075
    7          C          -0.037354        4.0374     1.10390     2.93345
    8          C          -0.043833        4.0438     1.11657     2.92726
    9          C           0.014680        3.9853     1.05932     2.92600
   10          C           0.014368        3.9856     1.05962     2.92601
   11          C          -0.037437        4.0374     1.10525     2.93219
   12          H           0.015454        0.9845     0.98455
   13          C          -0.036782        4.0368     1.09826     2.93852
   14          H           0.023257        0.9767     0.97674
   15          H           0.027157        0.9728     0.97284
   16          H           0.027274        0.9727     0.97273
   17          H           0.023693        0.9763     0.97631
   18          H           0.025043        0.9750     0.97496
   19          H           0.024221        0.9758     0.97578
   20          H           0.020952        0.9790     0.97905
   21          C          -0.022990        4.0230     1.08974     2.93325
   22          C          -0.020837        4.0208     1.08831     2.93253
   23          C          -0.025834        4.0258     1.09835     2.92748
   24          C          -0.026377        4.0264     1.10047     2.92591
   25          H           0.028118        0.9719     0.97188
   26          H           0.016215        0.9838     0.98378
   27          H           0.023439        0.9766     0.97656
   28          H           0.034712        0.9653     0.96529
   29          C           0.013126        3.9869     1.07124     2.91564
   30          C           0.007314        3.9927     1.07471     2.91798
 DIPOLE           X         Y         Z       TOTAL
 POINT-CHG.     0.053     0.100    -0.003     0.113
 HYBRID        -0.036     0.058    -0.215     0.226
 SUM            0.017     0.158    -0.219     0.270


          ATOMIC ORBITAL ELECTRON POPULATIONS

     Atom    s        px        py        pz   
    1  C   1.08729   0.97063   0.97213   0.99663
    2  C   1.09883   0.97028   0.95036   1.01038
    3  C   1.07208   0.96594   0.96571   0.98466
    4  C   1.07538   0.96464   0.96544   0.98300
    5  C   1.10146   0.96979   0.95226   1.00683
    6  C   1.09311   0.94337   0.99574   0.99164
    7  C   1.10390   0.96287   0.95203   1.01854
    8  C   1.11657   0.97279   0.93629   1.01818
    9  C   1.05932   0.97325   0.97996   0.97279
   10  C   1.05962   0.96815   0.97869   0.97917
   11  C   1.10525   0.96566   0.94483   1.02170
   12  H   0.98455
   13  C   1.09826   0.96502   0.95753   1.01598
   14  H   0.97674
   15  H   0.97284
   16  H   0.97273
   17  H   0.97631
   18  H   0.97496
   19  H   0.97578
   20  H   0.97905
   21  C   1.08974   0.97073   0.96037   1.00214
   22  C   1.08831   0.94765   0.98735   0.99752
   23  C   1.09835   0.96797   0.95486   1.00465
   24  C   1.10047   0.97318   0.95334   0.99939
   25  H   0.97188
   26  H   0.98378
   27  H   0.97656
   28  H   0.96529
   29  C   1.07124   0.96480   0.96706   0.98378
   30  C   1.07471   0.97463   0.95972   0.98363

 **********************
 *                    *
 * JOB ENDED NORMALLY *
 *                    *
 **********************



 TOTAL JOB TIME:             1.65 SECONDS

 == MOPAC DONE ==


          MOPAC Job: "./tetraceneTraj/tetracene_741.mop" ended normally on Feb 15, 2023, at 11:27.

rm: cannot remove ./tetraceneTraj/tetracene_741.cim: No such file or directory
rm: cannot remove ./tetraceneTraj/tetracene_741.end: No such file or directory
rm: cannot remove ./tetraceneTraj/tetracene_741.log: No such file or directory
rm: cannot remove ./tetraceneTraj/tetracene_741.temp: No such file or directory
rm: cannot remove ./tetraceneTraj/tetracene_741.ple: No such file or directory
rm: cannot remove ./tetraceneTraj/tetracene_741.sts: No such file or directory
