 *******************************************************************************
 ** Site#:    0         For non-commercial use only    Version 20.173L 64BITS **
 *******************************************************************************
 ** Cite this program as: MOPAC2016, Version: 20.173L, James J. P. Stewart,   **
 ** Stewart Computational Chemistry, web-site: HTTP://OpenMOPAC.net.          **
 *******************************************************************************
 **                                                                           **
 **                                MOPAC2016                                  **
 **                                                                           **
 *******************************************************************************

                              INDO CALCULATION RESULTS

 *******************************************************************************
 *  CALCULATION DONE:                                Wed Feb 15 11:26:15 2023  *
 *  INDO       - The INDO Hamiltonian to be used
 *
 *
 *
 *                 CHARGE ON SYSTEM = 0
 *
 *
 *
 *  C.I.=(N,M) - 3 DOUBLY FILLED LEVELS USED IN A C.I. INVOLVING 6 M.O.'S
 *  T=         - A TIME OF 172800.0 SECONDS REQUESTED
 *  DUMP=N     - RESTART FILE WRITTEN EVERY 7200.0 SECONDS REQUESTED
 *  RELSCF     - DEFAULT SCF CRITERION MULTIPLIED BY 0.0000
 *              (DEFAULT SCF CRITERION = 0.00010)
 *  ALLVEC     - PRINT ALL EIGENVECTORS
 **********
 *  WARNING: Specified print options may not behave as expected with INDO
 **********
 *******************************************************************************
INDO C.I.=(6,3) AllVEC CHARGE=0 RELSCF=0.000001


   ATOM   CHEMICAL          X               Y               Z
  NUMBER   SYMBOL      (ANGSTROMS)     (ANGSTROMS)     (ANGSTROMS)
 
     1       C         18.43629203  *  19.50968903  *  22.30262623  *
     2       C         19.86464113  *  19.42918263  *  22.34827775  *
     3       C         20.67596159  *  20.66359378  *  22.44194003  *
     4       C         19.98509617  *  21.96663708  *  22.43026372  *
     5       C         18.50258205  *  21.98786761  *  22.45744397  *
     6       C         17.75705855  *  20.79079065  *  22.38558485  *
     7       C         22.07431454  *  20.63094921  *  22.44212287  *
     8       C         20.74804387  *  23.16202226  *  22.36717319  *
     9       C         22.17312566  *  23.11788803  *  22.53226591  *
    10       C         22.84682476  *  21.83149571  *  22.47855894  *
    11       C         24.29901596  *  21.83434253  *  22.57938731  *
    12       H         24.87296661  *  20.86634075  *  22.62687015  *
    13       C         22.95811453  *  24.32799289  *  22.61094032  *
    14       H         22.62286532  *  19.66412677  *  22.47730023  *
    15       H         17.86287001  *  18.60403272  *  22.17882223  *
    16       H         20.39276662  *  18.43112174  *  22.25760953  *
    17       H         17.96934324  *  22.95475691  *  22.48103752  *
    18       H         16.61979187  *  20.89218638  *  22.36084917  *
    19       H         20.19573413  *  24.10272713  *  22.22574904  *
    20       H         22.47604650  *  25.31251612  *  22.56772406  *
    21       C         26.53131295  *  23.04331135  *  22.61243896  *
    22       C         27.20149196  *  24.24256806  *  22.59241220  *
    23       C         26.44552093  *  25.51019599  *  22.57728194  *
    24       C         25.06909699  *  25.58763852  *  22.67944771  *
    25       H         27.07895562  *  22.09565310  *  22.72709976  *
    26       H         28.29654904  *  24.25031031  *  22.53326060  *
    27       H         27.02941858  *  26.42200001  *  22.58236305  *
    28       H         24.52354849  *  26.54826995  *  22.69699843  *
    29       C         25.09719075  *  23.02987989  *  22.52920667  *
    30       C         24.33928332  *  24.32185632  *  22.65650467  *
 


          CARTESIAN COORDINATES 

    NO.       ATOM           X           Y           Z

     1         C         18.4363     19.5097     22.3026
     2         C         19.8646     19.4292     22.3483
     3         C         20.6760     20.6636     22.4419
     4         C         19.9851     21.9666     22.4303
     5         C         18.5026     21.9879     22.4574
     6         C         17.7571     20.7908     22.3856
     7         C         22.0743     20.6309     22.4421
     8         C         20.7480     23.1620     22.3672
     9         C         22.1731     23.1179     22.5323
    10         C         22.8468     21.8315     22.4786
    11         C         24.2990     21.8343     22.5794
    12         H         24.8730     20.8663     22.6269
    13         C         22.9581     24.3280     22.6109
    14         H         22.6229     19.6641     22.4773
    15         H         17.8629     18.6040     22.1788
    16         H         20.3928     18.4311     22.2576
    17         H         17.9693     22.9548     22.4810
    18         H         16.6198     20.8922     22.3608
    19         H         20.1957     24.1027     22.2257
    20         H         22.4760     25.3125     22.5677
    21         C         26.5313     23.0433     22.6124
    22         C         27.2015     24.2426     22.5924
    23         C         26.4455     25.5102     22.5773
    24         C         25.0691     25.5876     22.6794
    25         H         27.0790     22.0957     22.7271
    26         H         28.2965     24.2503     22.5333
    27         H         27.0294     26.4220     22.5824
    28         H         24.5235     26.5483     22.6970
    29         C         25.0972     23.0299     22.5292
    30         C         24.3393     24.3219     22.6565

           Empirical Formula: C18 H12  =    30 atoms



      MOLECULAR POINT GROUP   :   C1  


      RHF CALCULATION, NO. OF DOUBLY OCCUPIED LEVELS = 42

 WARNING: INDO only performs single-point calculations
  SCF CRITERION =    0.1000E-09

 Summary of symmetry occupancy in each shell:

 SHELL     
    1   42
    v   42
 TOTAL  84




    ROOT NO.    1           2           3           4           5           6

           -44.34146   -42.60638   -39.97898   -36.76040   -35.46054   -34.05856
  
  
  S  C   1   0.09216     0.18128     0.28938     0.25979     0.09010     0.09866
 PX  C   1   0.02531     0.04343     0.04927     0.01048     0.03397     0.07381
 PY  C   1   0.03293     0.06174     0.08883     0.06707    -0.00741    -0.04145
 PZ  C   1   0.00257     0.00487     0.00702     0.00492     0.00051    -0.00076
  
  S  C   2   0.12290     0.20738     0.24528     0.11303     0.15624     0.26835
 PX  C   2   0.00218    -0.01532    -0.07009    -0.11080     0.01647     0.04871
 PY  C   2   0.05142     0.07989     0.07481     0.00822     0.01554     0.02505
 PZ  C   2   0.00162     0.00217     0.00086    -0.00236     0.00046     0.00067
  
  S  C   3   0.25094     0.30653     0.12349    -0.16907     0.11946     0.23588
 PX  C   3   0.01814    -0.02742    -0.13772    -0.14679     0.05060     0.07316
 PY  C   3   0.05881     0.04415    -0.04892    -0.08834    -0.09109    -0.12900
 PZ  C   3  -0.00268    -0.00518    -0.00642    -0.00177    -0.00224    -0.00569
  
  S  C   4   0.24993     0.30436     0.12550    -0.13065    -0.18008    -0.20915
 PX  C   4   0.05810     0.01961    -0.11999    -0.16106     0.00158     0.07168
 PY  C   4  -0.01899    -0.04968    -0.08614    -0.04591    -0.11018    -0.13695
 PZ  C   4  -0.00096    -0.00182    -0.00185     0.00036     0.00173     0.00177
  
  S  C   5   0.12435     0.21030     0.25357     0.15094    -0.12559    -0.27039
 PX  C   5   0.04237     0.05490     0.02006    -0.04877    -0.04306    -0.03389
 PY  C   5  -0.02711    -0.05788    -0.10024    -0.09159    -0.03668    -0.02461
 PZ  C   5  -0.00275    -0.00513    -0.00725    -0.00536     0.00139     0.00404
  
  S  C   6   0.09241     0.18173     0.29062     0.26929    -0.00472    -0.11373
 PX  C   6   0.04229     0.07728     0.10475     0.06677     0.00263    -0.00967
 PY  C   6   0.00304     0.00250    -0.00631    -0.01884    -0.04452    -0.08534
 PZ  C   6  -0.00004    -0.00027    -0.00105    -0.00191    -0.00193    -0.00343
  
  S  C   7   0.23744     0.18498    -0.10942    -0.25342     0.24113     0.25631
 PX  C   7  -0.03004    -0.07079    -0.05348     0.06969     0.03672    -0.06445
 PY  C   7   0.08303     0.04040    -0.07820    -0.06536    -0.00261    -0.03743
 PZ  C   7   0.00270     0.00007    -0.00415    -0.00136     0.00409     0.00063
  
  S  C   8   0.23706     0.17740    -0.11114    -0.17765    -0.30899    -0.25107
 PX  C   8   0.05329    -0.00800    -0.09622    -0.00545    -0.01022     0.05569
 PY  C   8  -0.06955    -0.08043     0.00006     0.09943     0.00177     0.02420
 PZ  C   8   0.00965     0.00568    -0.00758    -0.00662    -0.00916    -0.00453
  
  S  C   9   0.33965     0.06303    -0.28983     0.03173    -0.18856    -0.07790
 PX  C   9   0.02885    -0.08622    -0.04084     0.17875     0.09807     0.06941
 PY  C   9  -0.05036    -0.06172     0.03189     0.12018    -0.11410    -0.00446
 PZ  C   9  -0.00692    -0.00737     0.00511     0.01302     0.00718     0.00652
  
  S  C  10   0.33316     0.07105    -0.28386    -0.03443     0.21950     0.04393
 PX  C  10  -0.03235    -0.09578     0.00825     0.17342     0.09835    -0.04234
 PY  C  10   0.05407    -0.03960    -0.05412     0.11570    -0.09919    -0.07684
 PZ  C  10   0.00572    -0.00335    -0.00601     0.00898     0.00607    -0.00126
  
  S  C  11   0.23662    -0.10018    -0.15570     0.17485     0.35076    -0.12590
 PX  C  11  -0.04754    -0.03848     0.08814    -0.00857     0.00045    -0.08198
 PY  C  11   0.07201    -0.06306    -0.02355     0.09775     0.01192    -0.04843
 PZ  C  11  -0.00458    -0.00019     0.00567    -0.00318    -0.00700     0.00019
  
  S  H  12   0.06911    -0.03006    -0.03971     0.03532     0.16445    -0.06063
  
  S  C  13   0.25640    -0.11706    -0.16753     0.28309    -0.27233     0.11476
 PX  C  13   0.03919    -0.07905     0.02838     0.08302     0.01377     0.09325
 PY  C  13  -0.07687    -0.00028     0.08703    -0.05548    -0.03235     0.06596
 PZ  C  13  -0.00534    -0.00077     0.00577    -0.00136     0.00476     0.00448
  
  S  H  14   0.07001     0.05269    -0.03064    -0.07301     0.12990     0.12393
  
  S  H  15   0.02389     0.04993     0.08900     0.09443     0.03771     0.04598
  
  S  H  16   0.03599     0.05870     0.06495     0.02225     0.07278     0.12936
  
  S  H  17   0.03778     0.06196     0.07137     0.04276    -0.06881    -0.13545
  
  S  H  18   0.02208     0.04611     0.08233     0.09063    -0.00533    -0.05184
  
  S  H  19   0.07072     0.05240    -0.02775    -0.03807    -0.14845    -0.12682
  
  S  H  20   0.08072    -0.03920    -0.04644     0.09109    -0.15538     0.06709
  
  S  C  21   0.16638    -0.25009     0.19940    -0.15543     0.21130    -0.28279
 PX  C  21  -0.05106     0.05555    -0.00705    -0.04716    -0.04965     0.02359
 PY  C  21   0.04217    -0.07824     0.08632    -0.08887    -0.03580     0.01167
 PZ  C  21  -0.00124     0.00207    -0.00191     0.00161    -0.00129     0.00167
  
  S  C  22   0.13583    -0.23522     0.24285    -0.26128     0.05178    -0.13009
 PX  C  22  -0.06018     0.09609    -0.08261     0.05790    -0.00171     0.00610
 PY  C  22  -0.00679     0.00769    -0.00034    -0.00648    -0.07372     0.10208
 PZ  C  22   0.00030    -0.00035     0.00005     0.00052    -0.00024     0.00075
  
  S  C  23   0.13860    -0.23748     0.23921    -0.23032    -0.12572     0.13449
 PX  C  23  -0.03635     0.05302    -0.03470    -0.00470     0.06541    -0.09373
 PY  C  23  -0.04802     0.07833    -0.07116     0.06088    -0.02470     0.04967
 PZ  C  23   0.00324    -0.00569     0.00578    -0.00504    -0.00446     0.00585
  
  S  C  24   0.17016    -0.24828     0.18054    -0.06665    -0.24599     0.29451
 PX  C  24   0.00603    -0.03508     0.07199    -0.11541     0.02596    -0.02344
 PY  C  24  -0.06749     0.08958    -0.04901    -0.00463     0.02216    -0.02004
 PZ  C  24  -0.00539     0.00776    -0.00576     0.00313     0.00541    -0.00608
  
  S  H  25   0.04908    -0.07185     0.05538    -0.04681     0.10740    -0.13639
  
  S  H  26   0.03500    -0.06458     0.07480    -0.09605     0.02354    -0.05922
  
  S  H  27   0.03679    -0.06711     0.07577    -0.08664    -0.05347     0.06104
  
  S  H  28   0.05126    -0.07123     0.04627    -0.00352    -0.11796     0.14010
  
  S  C  29   0.27801    -0.28136     0.04471     0.12456     0.24063    -0.19405
 PX  C  29  -0.04468    -0.02412     0.12629    -0.16494     0.02396    -0.08157
 PY  C  29   0.03410    -0.06965     0.07234    -0.03938    -0.12565     0.09174
 PZ  C  29   0.01072    -0.01274     0.00454     0.00373     0.00764    -0.00700
  
  S  C  30   0.29297    -0.28974     0.02789     0.20792    -0.16820     0.18703
 PX  C  30  -0.00404    -0.06508     0.13277    -0.14970     0.06365    -0.03498
 PY  C  30  -0.04914     0.00942     0.06549    -0.07778    -0.13858     0.13700
 PZ  C  30  -0.00966     0.00762     0.00221    -0.00806     0.00127    -0.00047




    ROOT NO.    7           8           9          10          11          12

           -31.55568   -31.18861   -28.78652   -28.06402   -26.72143   -25.99866
  
  
  S  C   1  -0.17243     0.27661    -0.21246    -0.24074     0.00718     0.19567
 PX  C   1  -0.10654    -0.07355    -0.09107     0.16392     0.04223     0.05752
 PY  C   1   0.07509     0.02040     0.09947     0.00294    -0.07895    -0.09880
 PZ  C   1   0.00247    -0.00060     0.00536     0.00556    -0.00489    -0.00715
  
  S  C   2  -0.30445    -0.02910    -0.17598     0.15100     0.13029     0.00917
 PX  C   2   0.02074    -0.14160     0.13278     0.10438     0.03729    -0.19935
 PY  C   2   0.00448    -0.07651     0.06079     0.09141    -0.08957    -0.07390
 PZ  C   2   0.00383    -0.00754     0.00993     0.00790    -0.00525    -0.01157
  
  S  C   3  -0.11111    -0.24938     0.09531     0.13058    -0.11047    -0.15995
 PX  C   3   0.04917     0.02875     0.12399    -0.16583     0.05537    -0.09459
 PY  C   3   0.10035    -0.01301    -0.02123    -0.09139    -0.17382     0.13761
 PZ  C   3   0.00843     0.00492     0.00449    -0.00679    -0.00201     0.00279
  
  S  C   4   0.09037    -0.25471    -0.10521     0.12323    -0.06665     0.21375
 PX  C   4  -0.11129     0.01359    -0.06913    -0.15722    -0.11183    -0.03414
 PY  C   4   0.02349     0.03118    -0.10761    -0.08580     0.17906     0.08713
 PZ  C   4   0.00135     0.00221     0.00563     0.00129    -0.00471    -0.00419
  
  S  C   5   0.30698    -0.05494     0.19699     0.13068     0.09541    -0.05694
 PX  C   5  -0.03044    -0.13713    -0.13031     0.13062    -0.00331     0.21168
 PY  C   5  -0.01146    -0.07176    -0.06593     0.03397     0.11146     0.08532
 PZ  C   5  -0.00420    -0.00216    -0.00221     0.00158    -0.00018     0.00108
  
  S  C   6   0.17848     0.25149     0.19680    -0.23766    -0.05614    -0.20273
 PX  C   6   0.00009    -0.01656    -0.02201     0.08358    -0.02813     0.06512
 PY  C   6   0.13575    -0.08613     0.15159     0.12828     0.03921    -0.13438
 PZ  C   6   0.00628    -0.00670     0.00831     0.01087     0.00092    -0.00789
  
  S  C   7   0.13195    -0.00609     0.23628    -0.13450     0.15925    -0.04633
 PX  C   7   0.13390     0.14531    -0.03302    -0.02810     0.13677     0.18686
 PY  C   7   0.07006     0.08507    -0.02542    -0.09306    -0.14142     0.12608
 PZ  C   7   0.00714     0.00503     0.00301    -0.00238     0.00272     0.00574
  
  S  C   8  -0.13053     0.00227    -0.23307    -0.11782     0.18819    -0.01031
 PX  C   8  -0.12434     0.15884     0.03985    -0.07988    -0.08927    -0.20249
 PY  C   8  -0.06274     0.07164     0.03320     0.03547     0.16462    -0.12942
 PZ  C   8  -0.00778     0.00662    -0.00137    -0.00598    -0.00757    -0.00832
  
  S  C   9  -0.20599     0.26120    -0.01544     0.00928    -0.09372    -0.18898
 PX  C   9   0.05903     0.02062     0.10551     0.18158    -0.10735     0.07112
 PY  C   9  -0.14117    -0.03058     0.05926     0.08944     0.19922    -0.14092
 PZ  C   9   0.00526    -0.00693     0.01234     0.01607     0.00061     0.00762
  
  S  C  10   0.22193     0.24947     0.01385    -0.00465    -0.04895     0.18983
 PX  C  10   0.08026    -0.01677    -0.08763     0.18168     0.13413     0.06387
 PY  C  10  -0.12393     0.04217    -0.07385     0.11198    -0.21949    -0.08809
 PZ  C  10   0.00531     0.00495    -0.00179     0.01162    -0.00275     0.00616
  
  S  C  11   0.20077    -0.01284    -0.22411     0.13074     0.20286     0.00185
 PX  C  11  -0.10052    -0.15937    -0.06987    -0.08211     0.05204    -0.19762
 PY  C  11  -0.05530    -0.07030    -0.04550     0.04888    -0.18458    -0.08660
 PZ  C  11  -0.00760    -0.00568     0.00348    -0.00563    -0.00314    -0.00572
  
  S  H  12   0.09167    -0.01822    -0.10088     0.01306     0.22046    -0.01621
  
  S  C  13  -0.19845     0.00249     0.24793     0.10213     0.16123    -0.00952
 PX  C  13   0.09984    -0.14877     0.05673    -0.01993    -0.10059     0.21315
 PY  C  13   0.05109    -0.09539     0.04629    -0.11043     0.16363     0.10437
 PZ  C  13   0.00876    -0.00954     0.00333    -0.00312    -0.00145     0.01490
  
  S  H  14   0.06591    -0.00494     0.11384    -0.02600     0.20383    -0.03420
  
  S  H  15  -0.08935     0.14952    -0.12807    -0.17429     0.03003     0.13370
  
  S  H  16  -0.14062    -0.01299    -0.07767     0.05468     0.12759    -0.01302
  
  S  H  17   0.15062    -0.02530     0.09760     0.04579     0.11343    -0.04595
  
  S  H  18   0.09077     0.12417     0.11500    -0.15637    -0.00891    -0.14651
  
  S  H  19  -0.05581    -0.01004    -0.10451    -0.01679     0.21514    -0.01169
  
  S  H  20  -0.09337    -0.01025     0.12739    -0.00408     0.20791    -0.00582
  
  S  C  21  -0.24189    -0.05154     0.16115    -0.15225     0.11543     0.01041
 PX  C  21  -0.03999     0.13931     0.15256     0.11835     0.06420     0.18367
 PY  C  21  -0.02586     0.08245     0.08204     0.04381    -0.10730     0.10866
 PZ  C  21   0.00082     0.00040     0.00106     0.00091     0.00318     0.00227
  
  S  C  22  -0.15504     0.25722     0.21924     0.22848     0.00493     0.19399
 PX  C  22  -0.00692     0.02388     0.04186     0.08744     0.06426     0.06521
 PY  C  22   0.12113     0.08359    -0.13528     0.14923    -0.06140    -0.09523
 PZ  C  22   0.00126    -0.00247    -0.00211    -0.00482     0.00080    -0.00212
  
  S  C  23   0.16975     0.26410    -0.19670     0.24720    -0.01349    -0.17539
 PX  C  23  -0.09795     0.08553     0.10549     0.17033    -0.01502     0.06404
 PY  C  23   0.06776    -0.01316    -0.09756     0.01722     0.07777    -0.10758
 PZ  C  23   0.00764     0.00343    -0.00922    -0.00057     0.00115    -0.00704
  
  S  C  24   0.24281    -0.03463    -0.15761    -0.13844     0.11797    -0.03061
 PX  C  24   0.05330     0.13641    -0.15041     0.10999    -0.07521    -0.18030
 PY  C  24   0.01500     0.07701    -0.06035     0.08847     0.09889    -0.09736
 PZ  C  24  -0.00556    -0.00174     0.00590    -0.00020     0.00296     0.00518
  
  S  H  25  -0.11428    -0.02654     0.07999    -0.06356     0.13900     0.00358
  
  S  H  26  -0.07927     0.13976     0.13281     0.16583     0.04021     0.13812
  
  S  H  27   0.08633     0.14990    -0.11355     0.18665     0.02719    -0.12404
  
  S  H  28   0.10828    -0.01742    -0.06142    -0.05668     0.13982    -0.01295
  
  S  C  29  -0.03890    -0.25244    -0.14905    -0.10402    -0.11044    -0.17572
 PX  C  29  -0.09727    -0.00809     0.05597    -0.16997     0.10252    -0.06114
 PY  C  29  -0.02048    -0.01459     0.10490    -0.07401    -0.18562     0.10469
 PZ  C  29  -0.00323    -0.01409    -0.00437    -0.00934    -0.00833    -0.00746
  
  S  C  30   0.03605    -0.23748     0.10404    -0.11429    -0.11083     0.17321
 PX  C  30   0.07475    -0.02496    -0.15101    -0.13864    -0.10163    -0.07522
 PY  C  30   0.06651     0.00516     0.04058    -0.11433     0.19034     0.09210
 PZ  C  30   0.00227     0.00297    -0.00090    -0.00411     0.01177     0.00140




    ROOT NO.   13          14          15          16          17          18

           -25.10921   -23.96962   -22.59148   -21.45967   -20.69121   -19.22121
  
  
  S  C   1   0.00189     0.12841    -0.00084    -0.16066    -0.04447    -0.01233
 PX  C   1   0.03147    -0.23995     0.00616     0.01405     0.21814     0.20290
 PY  C   1  -0.13477     0.00877     0.20539     0.13209    -0.13244     0.20336
 PZ  C   1  -0.00996    -0.00821     0.01822     0.01364    -0.00312     0.02781
  
  S  C   2   0.16462    -0.20298    -0.12339     0.12258     0.13091     0.04074
 PX  C   2   0.06817     0.03114    -0.06434     0.16605    -0.13257    -0.15483
 PY  C   2  -0.16179     0.00430     0.20822     0.07662    -0.14675     0.06716
 PZ  C   2  -0.01033     0.00136     0.01661     0.00947    -0.01684     0.00405
  
  S  C   3  -0.12121     0.09606     0.01105     0.09216    -0.06399    -0.15937
 PX  C   3   0.14038     0.15939    -0.16261    -0.10411    -0.02017    -0.02126
 PY  C   3  -0.19675     0.09090     0.02060    -0.12361     0.13509    -0.07613
 PZ  C   3  -0.00249     0.00268     0.00217    -0.01303     0.00183    -0.00319
  
  S  C   4  -0.10857     0.08714     0.02014    -0.09908    -0.05282    -0.14371
 PX  C   4  -0.08493     0.15476    -0.08506     0.17234     0.10178    -0.05881
 PY  C   4   0.23706     0.06918    -0.14589     0.01520    -0.08382     0.04424
 PZ  C   4  -0.00575    -0.00786     0.00145    -0.01177     0.01136    -0.01086
  
  S  C   5   0.14911    -0.17880    -0.11221    -0.13459     0.12027     0.00606
 PX  C   5  -0.07745     0.01067     0.14718    -0.16526    -0.18454    -0.02202
 PY  C   5   0.16372     0.01606    -0.17588    -0.11135    -0.01176    -0.18615
 PZ  C   5   0.00080    -0.00248    -0.00494    -0.00566     0.00690    -0.01029
  
  S  C   6  -0.02649     0.13794     0.00172     0.17856    -0.05839     0.01358
 PX  C   6  -0.08589    -0.11852     0.17276    -0.10432     0.00970     0.24940
 PY  C   6   0.08617    -0.18848    -0.11149     0.05502     0.24182     0.04668
 PZ  C   6   0.00218    -0.01632    -0.00239     0.00322     0.01873     0.01002
  
  S  C   7   0.14433     0.11175     0.06420    -0.19993    -0.07411     0.14255
 PX  C   7   0.04112    -0.13804     0.18418    -0.07503     0.02919     0.17375
 PY  C   7  -0.12132    -0.07945    -0.03875    -0.02518     0.21798     0.00842
 PZ  C   7   0.00016    -0.00271     0.00563    -0.00707    -0.00105    -0.00204
  
  S  C   8   0.14281     0.09879     0.05479     0.21004    -0.07438     0.15360
 PX  C   8  -0.10269    -0.13610     0.06966     0.06534     0.19281     0.07087
 PY  C   8   0.08855    -0.05872     0.16657     0.04515    -0.10814     0.11731
 PZ  C   8  -0.01004    -0.00771    -0.00197    -0.00796     0.02418    -0.01718
  
  S  C   9  -0.01798    -0.21600    -0.00506    -0.00330     0.00155    -0.01179
 PX  C   9   0.00135    -0.05285    -0.10063    -0.17678    -0.17243    -0.15481
 PY  C   9   0.02268     0.08555     0.21425    -0.09029    -0.09031    -0.09014
 PZ  C   9  -0.00266     0.00522    -0.00191    -0.02858    -0.01274    -0.03336
  
  S  C  10   0.00000    -0.22555    -0.00721    -0.00280     0.00799     0.00788
 PX  C  10   0.01849     0.02596     0.10988     0.16707    -0.16827    -0.17008
 PY  C  10  -0.02812    -0.09222    -0.20718     0.08764    -0.09132    -0.09504
 PZ  C  10  -0.00065    -0.00610    -0.00212     0.00282    -0.01253    -0.02325
  
  S  C  11  -0.12548     0.10533     0.06480     0.22430     0.07103    -0.16283
 PX  C  11  -0.09827     0.16775    -0.05938    -0.04896     0.19004     0.08125
 PY  C  11   0.05688     0.06781    -0.17507    -0.05576    -0.10857     0.14556
 PZ  C  11  -0.00083     0.00340    -0.00230    -0.00673     0.00612    -0.00243
  
  S  H  12  -0.12766     0.06870     0.11014     0.12077     0.16165    -0.14232
  
  S  C  13  -0.10136     0.10246     0.08106    -0.20626     0.06982    -0.13761
 PX  C  13   0.02554     0.13048    -0.18573     0.07043     0.00995     0.17118
 PY  C  13  -0.10162     0.08608     0.04227     0.03754     0.22471     0.00110
 PZ  C  13  -0.00466     0.00826    -0.01266    -0.00116     0.00650     0.00097
  
  S  H  14   0.15289     0.05771     0.11406    -0.10405    -0.15331     0.12590
  
  S  H  15   0.06125     0.14513    -0.11901    -0.16889    -0.02737    -0.21909
  
  S  H  16   0.19548    -0.09459    -0.20190     0.06407     0.11158    -0.07048
  
  S  H  17   0.19326    -0.08516    -0.20569    -0.07724     0.11422    -0.10519
  
  S  H  18   0.04426     0.13407    -0.12008     0.16701    -0.02259    -0.17744
  
  S  H  19   0.15706     0.06123     0.09607     0.10586    -0.16572     0.12656
  
  S  H  20  -0.12109     0.06236     0.11759    -0.09606     0.16630    -0.12335
  
  S  C  21  -0.15980    -0.18066    -0.09116    -0.12984    -0.11208    -0.01141
 PX  C  21  -0.09197    -0.02451    -0.13792     0.15663    -0.19340    -0.00878
 PY  C  21   0.17471    -0.02634     0.15003     0.11307    -0.01541    -0.16288
 PZ  C  21  -0.00722    -0.00266    -0.01169     0.00103    -0.01353     0.00568
  
  S  C  22   0.02350     0.12876    -0.00702     0.17205     0.04598    -0.00989
 PX  C  22  -0.10771     0.12070    -0.17533     0.11284    -0.02007     0.23129
 PY  C  22   0.09029     0.20842     0.09023    -0.04664     0.24390     0.04458
 PZ  C  22  -0.00219    -0.00884    -0.00155    -0.00277    -0.01096    -0.00716
  
  S  C  23  -0.00526     0.12939     0.00924    -0.16543     0.04967    -0.00731
 PX  C  23   0.03250     0.24591    -0.00744    -0.02730     0.20968     0.15315
 PY  C  23  -0.15810     0.00698    -0.18773    -0.13705    -0.13164     0.18263
 PZ  C  23  -0.00318    -0.00859    -0.00128    -0.00093    -0.01092    -0.00922
  
  S  C  24  -0.16799    -0.18856    -0.10666     0.12064    -0.12530    -0.01935
 PX  C  24   0.06802    -0.03257     0.06477    -0.16217    -0.11759    -0.12808
 PY  C  24  -0.18162    -0.00176    -0.18224    -0.09435    -0.14850     0.07588
 PZ  C  24  -0.00417     0.00263    -0.00518     0.00624     0.00389     0.00546
  
  S  H  25  -0.20818    -0.08495    -0.17699    -0.07531    -0.11385     0.08953
  
  S  H  26  -0.05387     0.14568    -0.12006     0.16852     0.01250     0.17019
  
  S  H  27  -0.07438     0.15707    -0.10391    -0.17710     0.02857     0.17606
  
  S  H  28  -0.20887    -0.08659    -0.17748     0.05679    -0.11003     0.07910
  
  S  C  29   0.09365     0.10458     0.00095    -0.09300     0.05527     0.14917
 PX  C  29  -0.08034    -0.15854     0.09104    -0.16815     0.11015    -0.08324
 PY  C  29   0.24123    -0.08872     0.11953    -0.01957    -0.09080     0.03102
 PZ  C  29   0.00707     0.00266    -0.00071    -0.00753     0.00026     0.00910
  
  S  C  30   0.13692     0.09298    -0.00835     0.09240     0.03914     0.14905
 PX  C  30   0.14744    -0.14773     0.13995     0.11265    -0.01885    -0.02289
 PY  C  30  -0.17081    -0.09573     0.00997     0.13075     0.13807    -0.09427
 PZ  C  30  -0.01386    -0.00476    -0.00435     0.00464     0.00826    -0.00567




    ROOT NO.   19          20          21          22          23          24

           -18.45770   -17.32695   -16.92435   -16.77985   -15.84356   -15.38413
  
  
  S  C   1   0.14953    -0.02623    -0.00697    -0.11293     0.04786     0.05632
 PX  C   1  -0.05100     0.18676     0.05653    -0.02774     0.17354     0.09612
 PY  C   1  -0.13746    -0.17445    -0.01730     0.06061     0.18529    -0.01996
 PZ  C   1  -0.01569    -0.00929    -0.00238     0.00654     0.02370     0.01675
  
  S  C   2  -0.16380     0.00553     0.02221     0.06643    -0.00010    -0.01120
 PX  C   2  -0.11657    -0.18951    -0.04469     0.10430    -0.18421    -0.11309
 PY  C   2   0.03370    -0.12266     0.03901    -0.27271    -0.07795     0.21825
 PZ  C   2   0.00233    -0.01833    -0.00456    -0.01714    -0.01282     0.03361
  
  S  C   3   0.04062     0.01771     0.06645    -0.20834    -0.08234     0.03498
 PX  C   3   0.15029    -0.04858    -0.00942    -0.05436     0.27252    -0.11217
 PY  C   3   0.05778     0.27711     0.02503     0.07723    -0.01149    -0.05718
 PZ  C   3   0.01789     0.00443    -0.01612     0.00863    -0.00993     0.02635
  
  S  C   4  -0.05759     0.06230    -0.04496     0.22303    -0.06788    -0.02446
 PX  C   4  -0.13023     0.21777     0.05042    -0.05640     0.09636     0.15654
 PY  C   4  -0.11331    -0.16042    -0.05258     0.10174     0.21666     0.04347
 PZ  C   4   0.02616     0.00295    -0.02403     0.01902    -0.03530     0.02864
  
  S  C   5   0.17589    -0.03136    -0.03536    -0.05713    -0.00041    -0.01146
 PX  C   5   0.01990    -0.18459    -0.06219     0.19583    -0.11617    -0.16006
 PY  C   5   0.09072    -0.10452     0.03063    -0.19458    -0.14678     0.14898
 PZ  C   5   0.01352     0.00211    -0.00858    -0.00170    -0.02276     0.02568
  
  S  C   6  -0.16950     0.00158     0.00349     0.11684     0.05325    -0.05138
 PX  C   6   0.16988    -0.07996    -0.05876    -0.06089     0.25616    -0.04560
 PY  C   6   0.00560     0.24547     0.02532     0.00841     0.03848    -0.00537
 PZ  C   6   0.00411     0.01709    -0.00349     0.00249     0.00357     0.01408
  
  S  C   7   0.10590     0.03495    -0.00844     0.04757     0.07502    -0.02113
 PX  C   7  -0.12574     0.08295    -0.02450     0.19221    -0.20051     0.07652
 PY  C   7  -0.09577     0.04426     0.18480    -0.18649    -0.03115    -0.18834
 PZ  C   7   0.00417     0.00231    -0.01672     0.00650    -0.00893     0.03303
  
  S  C   8  -0.08554     0.03615     0.01110    -0.06646     0.05198     0.04764
 PX  C   8   0.19491     0.06683    -0.13023     0.05561    -0.16448     0.06614
 PY  C   8   0.07147    -0.01889     0.13782    -0.27515    -0.11516    -0.13995
 PZ  C   8   0.02512     0.00932    -0.04914     0.05768    -0.02598     0.05212
  
  S  C   9   0.13843    -0.10705    -0.16388     0.09058    -0.07278     0.07428
 PX  C   9  -0.06816    -0.11736     0.05167     0.00651     0.09993    -0.06163
 PY  C   9   0.09503     0.25141    -0.01531     0.05120    -0.09360     0.01161
 PZ  C   9  -0.00292     0.00572    -0.02399     0.02904     0.00134     0.04000
  
  S  C  10  -0.15076    -0.12536     0.13863    -0.08278    -0.07440    -0.09077
 PX  C  10  -0.05701     0.11330     0.04626    -0.04920    -0.06569     0.06508
 PY  C  10   0.04460    -0.24618    -0.09767     0.01707     0.11416     0.06095
 PZ  C  10  -0.00327    -0.00353    -0.02800     0.00539    -0.00258     0.04647
  
  S  C  11   0.08663     0.03836    -0.03777    -0.03535     0.09158     0.01193
 PX  C  11   0.18440    -0.05262    -0.13509     0.07965     0.14014    -0.02470
 PY  C  11   0.06526    -0.04237     0.22567     0.03585     0.07129    -0.19055
 PZ  C  11   0.00408     0.00313    -0.04485     0.00159     0.00265     0.03291
  
  S  H  12   0.06811     0.03066    -0.25811    -0.00841     0.05571     0.14469
  
  S  C  13  -0.09530     0.05585     0.04008     0.03067     0.09252    -0.02533
 PX  C  13  -0.14920    -0.02940    -0.15283    -0.08509     0.10748     0.19730
 PY  C  13  -0.10736    -0.08330     0.20675    -0.04586     0.04596    -0.14921
 PZ  C  13  -0.01207    -0.00844    -0.02857     0.00733     0.00732     0.04169
  
  S  H  14   0.06836     0.02535    -0.16120     0.25088    -0.01760     0.16841
  
  S  H  15   0.19144     0.02555    -0.01712    -0.08769    -0.19215    -0.00347
  
  S  H  16  -0.14618     0.01980    -0.04105     0.28791    -0.01288    -0.22122
  
  S  H  17   0.14284    -0.02037     0.03506    -0.26197    -0.06345     0.17532
  
  S  H  18  -0.21910     0.08195     0.05392     0.10698    -0.19329     0.01661
  
  S  H  19  -0.06973    -0.02508     0.17283    -0.27309     0.01835    -0.11800
  
  S  H  20  -0.06648    -0.02543     0.25474     0.01269     0.04433    -0.20337
  
  S  C  21  -0.16513     0.00158    -0.02755    -0.05719    -0.00453     0.06259
 PX  C  21   0.04513     0.21954    -0.17128    -0.10870     0.12881    -0.09702
 PY  C  21   0.10127     0.06516     0.24316     0.12073     0.18280     0.21552
 PZ  C  21  -0.00785     0.01919    -0.05598    -0.02601    -0.00026    -0.02157
  
  S  C  22   0.15695    -0.03312     0.08662     0.07852     0.05455     0.01951
 PX  C  22   0.18309     0.05277    -0.01204     0.04663    -0.23026    -0.20355
 PY  C  22  -0.02391    -0.23691    -0.06796    -0.00674    -0.09803    -0.06962
 PZ  C  22  -0.00777     0.01412    -0.02790    -0.01440     0.01497    -0.00473
  
  S  C  23  -0.15593     0.00955    -0.09461    -0.07938     0.05030    -0.02442
 PX  C  23  -0.09836    -0.19458     0.04319    -0.00684    -0.17257     0.20681
 PY  C  23  -0.11269     0.17690     0.00187    -0.04739    -0.13860     0.04727
 PZ  C  23   0.00436     0.01005    -0.01692    -0.00297     0.01541    -0.00889
  
  S  C  24   0.16372    -0.02327     0.03104     0.06107    -0.00273    -0.03421
 PX  C  24  -0.07962     0.22436    -0.09937    -0.05883     0.18912    -0.18572
 PY  C  24   0.03888     0.06677     0.31543     0.15813     0.05105     0.23278
 PZ  C  24   0.00760    -0.01493    -0.00428     0.00688    -0.00808     0.02539
  
  S  H  25  -0.13387     0.04590    -0.27523    -0.16505    -0.07982    -0.17316
  
  S  H  26   0.22494     0.02313     0.03366     0.07978    -0.17424    -0.17100
  
  S  H  27  -0.19574     0.04069    -0.02644    -0.07662    -0.15871     0.11922
  
  S  H  28   0.13959    -0.05792     0.29718     0.17262    -0.04016     0.23460
  
  S  C  29   0.06399     0.00036     0.20688     0.09341    -0.08341    -0.04029
 PX  C  29  -0.16153    -0.21505     0.04819     0.03217    -0.09462     0.14545
 PY  C  29  -0.08227     0.17251    -0.01921    -0.02840    -0.17851     0.08690
 PZ  C  29  -0.00138     0.00856    -0.03710    -0.00532    -0.01154     0.01336
  
  S  C  30  -0.03531     0.06465    -0.19571    -0.08914    -0.10238     0.02608
 PX  C  30   0.16882     0.02080     0.02628     0.01986    -0.19640    -0.17745
 PY  C  30   0.02219    -0.25374    -0.13767    -0.04858     0.00154    -0.06129
 PZ  C  30   0.00216    -0.02174    -0.03272     0.00150    -0.00159     0.02461




    ROOT NO.   25          26          27          28          29          30

           -14.90300   -14.84298   -14.70925   -14.49545   -13.72338   -13.37440
  
  
  S  C   1   0.02820    -0.00313    -0.03634     0.00658    -0.05001    -0.00695
 PX  C   1   0.10410     0.28376     0.02767    -0.01637    -0.06543     0.05114
 PY  C   1   0.22767    -0.09432     0.11743    -0.00525    -0.12197    -0.12505
 PZ  C   1   0.05665     0.00778     0.02743     0.10596     0.00509     0.18875
  
  S  C   2   0.09740     0.00897     0.06779    -0.01234     0.02525    -0.00906
 PX  C   2  -0.06016    -0.27718     0.00747    -0.00279     0.09382    -0.06235
 PY  C   2   0.20667     0.08936    -0.06929    -0.06168     0.08331     0.02485
 PZ  C   2   0.04714     0.00394     0.01312     0.14023     0.03226     0.22536
  
  S  C   3  -0.04305     0.00899     0.00413     0.01638    -0.01880     0.01682
 PX  C   3  -0.11359    -0.06671     0.06214     0.06446    -0.21570     0.01491
 PY  C   3  -0.16094     0.10696     0.00062     0.00833    -0.03656    -0.03218
 PZ  C   3   0.02941     0.00607     0.03367     0.26205     0.03470     0.30069
  
  S  C   4  -0.00431     0.05629    -0.02383    -0.00947    -0.01498    -0.00042
 PX  C   4   0.06495     0.11829    -0.10732     0.01549    -0.17846    -0.05777
 PY  C   4   0.17279    -0.03534    -0.01456     0.02075    -0.16765     0.00591
 PZ  C   4   0.04896    -0.01621     0.02451     0.25448     0.05340     0.27825
  
  S  C   5  -0.03639    -0.10835    -0.03287     0.01328     0.01520    -0.00418
 PX  C   5  -0.01956    -0.06590     0.11686    -0.01835     0.16022     0.05641
 PY  C   5   0.34385     0.00573     0.06733    -0.06655     0.04100    -0.09833
 PZ  C   5   0.04406    -0.00650     0.01150     0.14058     0.03606     0.21042
  
  S  C   6  -0.01010     0.01177     0.03900     0.01219    -0.03752     0.00256
 PX  C   6  -0.13305    -0.22513    -0.08468     0.06785    -0.17731    -0.06927
 PY  C   6  -0.26988     0.12593    -0.11933     0.02136    -0.00232     0.09242
 PZ  C   6   0.00887     0.00603     0.00172     0.11008     0.01967     0.20133
  
  S  C   7   0.00325     0.07472     0.01630    -0.01274     0.02901    -0.00336
 PX  C   7   0.13314     0.09129    -0.03654    -0.07763     0.22808    -0.03334
 PY  C   7   0.02730    -0.10902     0.32483    -0.00928     0.06808    -0.05930
 PZ  C   7   0.02672     0.01556     0.04492     0.25474     0.01945     0.18615
  
  S  C   8  -0.05220    -0.01314    -0.05505     0.01419     0.01624     0.00682
 PX  C   8   0.03145    -0.21147    -0.15779    -0.01879     0.16463    -0.05368
 PY  C   8  -0.24291     0.04289     0.15894     0.02568     0.18338     0.08080
 PZ  C   8   0.08297    -0.02532     0.00526     0.24718     0.01415     0.13658
  
  S  C   9   0.00078     0.01142     0.02354    -0.01990     0.00042     0.01192
 PX  C   9  -0.05420     0.23633     0.18481    -0.05985    -0.16651     0.03509
 PY  C   9  -0.03337     0.08512     0.11585    -0.01783    -0.12995    -0.10962
 PZ  C   9   0.04545     0.04888     0.09063     0.32281    -0.01685     0.03780
  
  S  C  10   0.00358    -0.01069    -0.00251     0.00842     0.00252     0.01058
 PX  C  10  -0.09855    -0.01084    -0.27113     0.08727    -0.22946    -0.03629
 PY  C  10  -0.05610     0.04061    -0.15560    -0.00500    -0.07739     0.10393
 PZ  C  10   0.02134     0.02583     0.06418     0.32809    -0.00926     0.06747
  
  S  C  11  -0.01995    -0.06562    -0.03697     0.02979    -0.00417    -0.00602
 PX  C  11   0.08157     0.01240     0.23338    -0.11624     0.23370     0.03518
 PY  C  11   0.05173     0.13616    -0.27034     0.07730     0.20878    -0.03792
 PZ  C  11   0.01561     0.01495     0.09303     0.23368     0.02261    -0.09120
  
  S  H  12  -0.01579    -0.11839     0.29286    -0.09112    -0.06132     0.03943
  
  S  C  13   0.06945     0.01870     0.04765    -0.01394    -0.02399    -0.00540
 PX  C  13  -0.12001    -0.05273     0.04894    -0.07738     0.21997     0.06802
 PY  C  13   0.15111    -0.18785    -0.26914     0.06965     0.08556     0.04402
 PZ  C  13   0.01654     0.03017     0.06287     0.25573     0.03831    -0.11206
  
  S  H  14   0.03570     0.15132    -0.25249    -0.02909     0.06075     0.03555
  
  S  H  15  -0.21478    -0.06685    -0.12526     0.00389     0.10521     0.05055
  
  S  H  16  -0.14407    -0.18082     0.08319     0.03054    -0.01292    -0.07072
  
  S  H  17   0.25747    -0.01792    -0.00724    -0.03569    -0.02325    -0.10344
  
  S  H  18   0.10038     0.22337     0.08986    -0.05852     0.15166     0.07100
  
  S  H  19  -0.22055     0.11532     0.16118     0.00666     0.07986     0.07380
  
  S  H  20   0.18906    -0.11280    -0.21226     0.07579    -0.03276     0.00714
  
  S  C  21  -0.06242    -0.01706    -0.04849     0.01259    -0.01579     0.00093
 PX  C  21   0.03972    -0.09050    -0.09651     0.00755     0.19231    -0.04905
 PY  C  21  -0.01101    -0.21869     0.07398    -0.01537     0.11219     0.05490
 PZ  C  21   0.00905     0.02926     0.01882     0.17430     0.06442    -0.25644
  
  S  C  22   0.00224     0.03151     0.03695    -0.00786     0.05825    -0.01548
 PX  C  22   0.16641     0.04863     0.09848    -0.01983    -0.22807     0.07620
 PY  C  22  -0.07523     0.26992    -0.03908     0.02296    -0.04786    -0.10047
 PZ  C  22   0.00390     0.01436     0.01392     0.13492     0.06996    -0.23317
  
  S  C  23  -0.00147    -0.00561    -0.05051    -0.00639     0.06048     0.01068
 PX  C  23  -0.20046    -0.02988    -0.06082     0.06465    -0.06068    -0.09058
 PY  C  23   0.06116    -0.26710     0.02812     0.00309    -0.12457     0.10264
 PZ  C  23   0.01138     0.02805     0.02672     0.13002     0.05968    -0.22156
  
  S  C  24  -0.00415     0.10389     0.02903    -0.00097    -0.02079    -0.01793
 PX  C  24   0.19732    -0.02219     0.04097    -0.04501     0.10164     0.06012
 PY  C  24  -0.05978    -0.05940     0.09952    -0.00862     0.07187    -0.07080
 PZ  C  24  -0.01251     0.03342     0.03689     0.17087     0.04512    -0.23760
  
  S  H  25  -0.00579     0.12200    -0.11467     0.03564    -0.00731    -0.09322
  
  S  H  26   0.15090     0.06218     0.10902    -0.02818    -0.19406     0.07556
  
  S  H  27  -0.04962    -0.22175    -0.03402     0.03139    -0.10516     0.04244
  
  S  H  28  -0.12958     0.01461     0.06652     0.02009    -0.00195    -0.10258
  
  S  C  29   0.06970    -0.01787    -0.01444    -0.00852    -0.01071     0.01908
 PX  C  29  -0.09459     0.06997     0.08734    -0.02358    -0.20624     0.07802
 PY  C  29   0.00622    -0.16574     0.09480     0.00791    -0.22818    -0.02670
 PZ  C  29   0.01400     0.02845     0.07295     0.26209     0.04612    -0.25517
  
  S  C  30  -0.02549    -0.07344     0.04559     0.00171    -0.00686    -0.00544
 PX  C  30   0.08330    -0.00255    -0.06662     0.07015    -0.21838    -0.05276
 PY  C  30  -0.07401     0.14608    -0.08986    -0.01925    -0.02075     0.07914
 PZ  C  30   0.00133     0.05150     0.06221     0.27237     0.05225    -0.25102




    ROOT NO.   31          32          33          34          35          36

           -13.24566   -12.90653   -12.30264   -11.87649   -11.66487   -11.46546
  
  
  S  C   1  -0.00987    -0.00188     0.00865     0.00310    -0.00495    -0.01343
 PX  C   1   0.04780    -0.25329    -0.04329    -0.06369     0.00249    -0.13185
 PY  C   1  -0.21626    -0.05775     0.18384     0.05134     0.05255    -0.06189
 PZ  C   1  -0.12352    -0.01726     0.00224     0.11927    -0.31831     0.04329
  
  S  C   2  -0.02225    -0.00749    -0.02963    -0.02592    -0.00499     0.03194
 PX  C   2  -0.02530     0.25711     0.00115     0.03227     0.01384     0.15527
 PY  C   2   0.17616     0.07308    -0.21817    -0.10569    -0.00351     0.10942
 PZ  C   2  -0.08879     0.02022    -0.03775     0.09854    -0.23086     0.05667
  
  S  C   3   0.00098     0.03013     0.00462     0.00272    -0.00454    -0.00896
 PX  C   3  -0.04184    -0.21280    -0.07969    -0.13430    -0.04465    -0.18422
 PY  C   3  -0.12176    -0.06982     0.29666     0.17971     0.05042    -0.10484
 PZ  C   3  -0.12070     0.01238    -0.00932     0.08296    -0.05737     0.00426
  
  S  C   4  -0.00258    -0.03671     0.01008     0.00621    -0.00694     0.01794
 PX  C   4  -0.05128     0.21276     0.12700     0.14176     0.02004     0.19541
 PY  C   4   0.06388     0.02375    -0.26845    -0.17377    -0.06526     0.13095
 PZ  C   4  -0.14303     0.01018    -0.00961     0.00462    -0.08428     0.01222
  
  S  C   5  -0.00828     0.01650    -0.02862    -0.03226    -0.01510    -0.03039
 PX  C   5   0.02871    -0.24007    -0.10315    -0.12367    -0.02111    -0.18458
 PY  C   5  -0.17001    -0.07716     0.17317     0.05612     0.03741    -0.08411
 PZ  C   5  -0.12578     0.00762    -0.00030     0.06957    -0.25276     0.03996
  
  S  C   6  -0.01586    -0.01356     0.00433     0.00372    -0.00458     0.01276
 PX  C   6  -0.06129     0.23239     0.05430     0.06252     0.00953     0.12463
 PY  C   6   0.22821     0.07315    -0.18516    -0.06171    -0.00334     0.08869
 PZ  C   6  -0.09526     0.01112    -0.02198     0.09885    -0.33376     0.06482
  
  S  C   7  -0.01620    -0.06704    -0.00634    -0.04978    -0.00710     0.01190
 PX  C   7   0.01395     0.17346     0.07206     0.09902     0.04003     0.19569
 PY  C   7  -0.12158     0.04342    -0.12169    -0.17542    -0.02845     0.13246
 PZ  C   7  -0.04020     0.03058    -0.00237     0.04597     0.16241    -0.01792
  
  S  C   8   0.00633     0.07663    -0.02231    -0.04477    -0.01776    -0.02102
 PX  C   8  -0.09897    -0.04475     0.00411    -0.12881    -0.03187    -0.23717
 PY  C   8   0.00551    -0.07450     0.15899     0.11716     0.06258    -0.12121
 PZ  C   8  -0.08277     0.02801    -0.03057    -0.13504     0.10769     0.02075
  
  S  C   9   0.02507    -0.06258     0.01263    -0.00246     0.02015     0.01161
 PX  C   9   0.10181    -0.02215     0.02987     0.18301     0.00206     0.23777
 PY  C   9  -0.21863     0.00809    -0.00620    -0.24219    -0.08065     0.14969
 PZ  C   9   0.02062     0.05467     0.02041    -0.13919     0.30432     0.06042
  
  S  C  10   0.03179     0.04326    -0.01310    -0.00196    -0.01808     0.00702
 PX  C  10  -0.11194     0.00209     0.04698    -0.16198    -0.07615    -0.20057
 PY  C  10   0.20267    -0.09942     0.06061     0.25558     0.03456    -0.13011
 PZ  C  10   0.04039     0.04217     0.00992    -0.01370     0.34017    -0.04319
  
  S  C  11  -0.01437    -0.06852     0.02482    -0.05768    -0.00109    -0.01275
 PX  C  11   0.08599    -0.04835    -0.01699     0.12475     0.04573     0.20588
 PY  C  11  -0.09088    -0.02311     0.13642    -0.17426     0.00372     0.11918
 PZ  C  11   0.10575     0.01573    -0.01262     0.06253     0.17170    -0.05118
  
  S  H  12   0.10993    -0.03611    -0.11969     0.21206     0.03318    -0.01298
  
  S  C  13   0.01272     0.08434    -0.00817    -0.03289    -0.02417     0.01404
 PX  C  13  -0.00547     0.17233     0.07664    -0.09040    -0.04149    -0.23427
 PY  C  13   0.14159    -0.03906    -0.06097     0.16509     0.05213    -0.15439
 PZ  C  13   0.09612     0.04782     0.06250    -0.13594     0.12193     0.00719
  
  S  H  14   0.09610     0.01486     0.14502     0.20223     0.05128    -0.01861
  
  S  H  15   0.16028     0.18025    -0.12616    -0.01977    -0.01113     0.11471
  
  S  H  16  -0.16357     0.05045     0.19278     0.10194     0.02964    -0.01551
  
  S  H  17  -0.16216     0.05450     0.19557     0.10506     0.03547    -0.00100
  
  S  H  18   0.07115    -0.23485    -0.06460    -0.06860    -0.00333    -0.12268
  
  S  H  19   0.06227    -0.00635     0.13348     0.17837     0.05477    -0.00494
  
  S  H  20   0.11933    -0.07091    -0.10023     0.19729     0.05681    -0.02715
  
  S  C  21  -0.01928    -0.01541     0.02894    -0.03496    -0.01058    -0.01687
 PX  C  21  -0.12316    -0.18925    -0.11146     0.07995     0.09857     0.16727
 PY  C  21   0.15709    -0.10750     0.16769    -0.07161    -0.03690     0.09831
 PZ  C  21   0.08970    -0.03740    -0.04025     0.12137    -0.19852    -0.03358
  
  S  C  22  -0.01035     0.02560    -0.00659     0.00231    -0.00590     0.00266
 PX  C  22   0.16972     0.15620     0.06781    -0.02792    -0.05939    -0.11060
 PY  C  22  -0.19803     0.13389    -0.18347     0.07454     0.01584    -0.11743
 PZ  C  22   0.09449    -0.03920    -0.00484     0.09376    -0.28568    -0.02044
  
  S  C  23  -0.02919     0.01303    -0.01242    -0.00235     0.02436    -0.02387
 PX  C  23  -0.11341    -0.23300    -0.04585     0.03638     0.01761     0.15729
 PY  C  23   0.22915    -0.14511     0.18764    -0.06957    -0.03920     0.09509
 PZ  C  23   0.10872    -0.00369     0.03044     0.03553    -0.30269    -0.02620
  
  S  C  24  -0.02477     0.02033     0.01994    -0.03041    -0.01580     0.03699
 PX  C  24   0.11470     0.23700     0.01493    -0.01168    -0.03764    -0.19470
 PY  C  24  -0.10485     0.11771    -0.19670     0.11263     0.02780    -0.15667
 PZ  C  24   0.10999    -0.01998     0.04780    -0.01079    -0.22988     0.00541
  
  S  H  25  -0.18843    -0.01463    -0.19904     0.11085     0.06031    -0.01506
  
  S  H  26   0.15402     0.17005     0.06131    -0.02835    -0.05005    -0.11648
  
  S  H  27   0.11594    -0.23783     0.12715    -0.03793    -0.01246     0.16083
  
  S  H  28  -0.14925    -0.00794    -0.17673     0.10378     0.03505    -0.02408
  
  S  C  29   0.01455     0.02943    -0.00342    -0.00330     0.00203     0.01353
 PX  C  29   0.11155     0.16534     0.13621    -0.10957    -0.08918    -0.16877
 PY  C  29   0.00669    -0.01425    -0.23215     0.21463     0.03791    -0.13362
 PZ  C  29   0.15342    -0.00327     0.00066     0.06820    -0.03944    -0.05359
  
  S  C  30   0.00620    -0.04248    -0.00497    -0.00064     0.00187    -0.00896
 PX  C  30   0.01291    -0.23380    -0.08966     0.13349     0.05425     0.21779
 PY  C  30   0.03158    -0.08264     0.25598    -0.20046    -0.04600     0.15682
 PZ  C  30   0.15822     0.00669     0.08814    -0.08276    -0.06615     0.00640




    ROOT NO.   37          38          39          40          41          42

           -10.46111    -9.83065    -9.63291    -8.21923    -8.08012    -6.73176
  
  
  S  C   1   0.00249    -0.00237     0.00025    -0.00130     0.00135     0.00147
 PX  C   1   0.01002     0.01459     0.01200     0.00531    -0.01634    -0.00982
 PY  C   1   0.00683     0.03759     0.01969     0.00991    -0.03485    -0.01905
 PZ  C   1  -0.03242    -0.33486    -0.20305    -0.12032     0.32921     0.19065
  
  S  C   2  -0.01442     0.00084    -0.00716    -0.00132    -0.00188     0.00257
 PX  C   2  -0.00983     0.00179     0.00611     0.01245    -0.00166    -0.00519
 PY  C   2  -0.00366     0.00615     0.03074     0.03793    -0.01370    -0.02111
 PZ  C   2  -0.16091    -0.10033    -0.33966    -0.34673     0.13446     0.24764
  
  S  C   3  -0.00098     0.01296    -0.00475    -0.01197    -0.00644    -0.00176
 PX  C   3   0.00065    -0.01251    -0.00224     0.00422     0.00746    -0.00576
 PY  C   3   0.04213    -0.00459     0.00841    -0.01051     0.02007     0.01389
 PZ  C   3  -0.22108     0.26346    -0.22684    -0.18219    -0.29076    -0.12289
  
  S  C   4  -0.00752    -0.00086    -0.00040    -0.00041    -0.00681     0.00555
 PX  C   4   0.00779     0.02501     0.02138    -0.00555    -0.02042     0.01156
 PY  C   4  -0.04029     0.01063     0.00571     0.01127    -0.03238    -0.00552
 PZ  C   4   0.17203     0.25747     0.28042    -0.07058    -0.33330     0.14121
  
  S  C   5  -0.00279    -0.01327    -0.00261     0.01008     0.00383    -0.01000
 PX  C   5  -0.00270    -0.02006    -0.01206     0.00734     0.01159    -0.00924
 PY  C   5  -0.00659    -0.00006    -0.01871    -0.01099     0.00987     0.00469
 PZ  C   5   0.20078    -0.12810     0.30948     0.33697    -0.15320    -0.24085
  
  S  C   6   0.00329     0.00259     0.00630     0.00138    -0.00359     0.00091
 PX  C   6  -0.00321     0.01611     0.00337    -0.00983    -0.00728     0.00887
 PY  C   6  -0.01064     0.02584    -0.00378    -0.02358    -0.01000     0.01995
 PZ  C   6   0.13083    -0.34985     0.12638     0.30535     0.14597    -0.19676
  
  S  C   7  -0.00545    -0.01063     0.00869     0.00453     0.00263     0.01186
 PX  C   7  -0.00632     0.00394     0.00548     0.00111    -0.00335     0.00980
 PY  C   7  -0.04870    -0.00057    -0.00262     0.01261    -0.00388    -0.00113
 PZ  C   7  -0.32993     0.19030    -0.23190     0.17848    -0.07208    -0.37034
  
  S  C   8  -0.01382    -0.00607    -0.00207     0.00897    -0.00782    -0.01081
 PX  C   8  -0.05074    -0.04704    -0.04890     0.02241     0.00531    -0.03683
 PY  C   8   0.07780     0.02304     0.03687    -0.02801     0.02598     0.04252
 PZ  C   8   0.26586     0.20864     0.28580    -0.17677     0.07957     0.36600
  
  S  C   9   0.00724     0.00019    -0.00049    -0.00459     0.03286    -0.00304
 PX  C   9   0.00337     0.02225     0.01376     0.00417    -0.04978     0.00126
 PY  C   9  -0.09738    -0.01087    -0.00127     0.01398    -0.03313    -0.00467
 PZ  C   9   0.23977     0.01378     0.06819    -0.07916     0.42053     0.00506
  
  S  C  10   0.01235     0.00603     0.00765    -0.01864    -0.01516     0.00178
 PX  C  10  -0.01480    -0.01309     0.00159    -0.01776    -0.00329    -0.00352
 PY  C  10   0.08943     0.01203     0.00486    -0.02758    -0.00543     0.00550
 PZ  C  10  -0.24051    -0.04049    -0.03308     0.34703     0.26182    -0.01659
  
  S  C  11  -0.02897    -0.02468     0.00754     0.01028    -0.00587     0.01742
 PX  C  11   0.03014     0.02295    -0.00228    -0.01497    -0.00427    -0.01313
 PY  C  11  -0.07951    -0.03619     0.01920     0.01670    -0.01277     0.02463
 PZ  C  11  -0.28850    -0.27457     0.13018     0.23313    -0.10316     0.37677
  
  S  H  12   0.07161     0.02299    -0.01267    -0.01042     0.00039    -0.00731
  
  S  C  13  -0.01020    -0.00017    -0.00257    -0.00234    -0.00892    -0.01234
 PX  C  13  -0.02585     0.01036     0.02306     0.00704     0.01780     0.02475
 PY  C  13   0.05882    -0.00311    -0.01191    -0.00192     0.01158     0.00578
 PZ  C  13   0.35216    -0.16359    -0.17775    -0.23699     0.06137    -0.36283
  
  S  H  14   0.03433     0.00444    -0.00036    -0.00506     0.00265    -0.00222
  
  S  H  15  -0.00624    -0.00330     0.00000     0.00228     0.00289     0.00057
  
  S  H  16   0.00818     0.00297    -0.00052    -0.00136     0.00216    -0.00249
  
  S  H  17   0.00261     0.00331    -0.00371    -0.00374     0.00190     0.00124
  
  S  H  18   0.00162    -0.00626    -0.00483     0.00206     0.00370    -0.00377
  
  S  H  19   0.06127     0.01667     0.02057    -0.01396     0.00988     0.01087
  
  S  H  20   0.05488    -0.00126    -0.01500     0.00254    -0.00422     0.00650
  
  S  C  21  -0.00951    -0.00573     0.00210     0.00356    -0.00803     0.01124
 PX  C  21   0.05069    -0.00342    -0.05099     0.02908    -0.00385     0.00771
 PY  C  21  -0.05095     0.00030     0.03749    -0.02087     0.00362    -0.01149
 PZ  C  21  -0.25107     0.04681     0.34261    -0.29278     0.10694    -0.21426
  
  S  C  22  -0.00901     0.00634     0.00920    -0.00414     0.00799    -0.00516
 PX  C  22  -0.01305     0.01177     0.01789    -0.01046     0.01153    -0.00938
 PY  C  22   0.02916     0.00758    -0.01178     0.00329     0.00707    -0.00121
 PZ  C  22  -0.16610     0.29594     0.22309    -0.11104     0.31779    -0.20200
  
  S  C  23   0.00619    -0.02071    -0.00068    -0.01115    -0.00889    -0.00697
 PX  C  23   0.00070     0.02087    -0.01094     0.02042     0.00664     0.01146
 PY  C  23  -0.03005     0.00704     0.01497    -0.00162     0.00304    -0.00043
 PZ  C  23   0.06590     0.37541    -0.15076     0.29981     0.16837     0.18455
  
  S  C  24  -0.01058     0.00714    -0.00577     0.01630    -0.00440     0.01306
 PX  C  24   0.03073     0.00971    -0.02421     0.01344    -0.00530     0.01153
 PY  C  24   0.04219    -0.00522    -0.00817    -0.01409     0.00057    -0.00976
 PZ  C  24   0.20785     0.19676    -0.32521     0.30585    -0.10256     0.22300
  
  S  H  25   0.04844    -0.00017    -0.02757     0.00529     0.00051    -0.00412
  
  S  H  26  -0.00791     0.00075     0.01151    -0.00759    -0.00126    -0.00121
  
  S  H  27  -0.02416     0.01058     0.00821     0.00624     0.00483     0.00395
  
  S  H  28   0.02584    -0.00274    -0.00411    -0.00984     0.00004    -0.00896
  
  S  C  29   0.01210     0.03351    -0.01402     0.01069     0.03948    -0.02446
 PX  C  29  -0.03347     0.00138     0.02641    -0.00857     0.00170     0.00256
 PY  C  29   0.08829     0.01814    -0.02927    -0.00050     0.01168    -0.00578
 PZ  C  29  -0.20718    -0.30778     0.18795    -0.12770    -0.31300     0.16254
  
  S  C  30   0.02428    -0.00805    -0.01809    -0.00604    -0.01486    -0.00266
 PX  C  30   0.02436    -0.00283    -0.01416    -0.00033    -0.01317    -0.00764
 PY  C  30  -0.09469     0.01224     0.04321     0.01075     0.02539     0.00694
 PZ  C  30   0.24919    -0.20163    -0.24763    -0.10835    -0.31391    -0.13777




    ROOT NO.   43          44          45          46          47          48

            -1.02330     0.19077     0.25219     1.22290     1.33575     1.77535
  
  
  S  C   1  -0.00168    -0.00548    -0.00069     0.00661     0.01057     0.00407
 PX  C   1   0.00724     0.01339    -0.00718    -0.00130    -0.01943     0.00058
 PY  C   1   0.02165     0.03522    -0.00090    -0.01801    -0.03228     0.00652
 PZ  C   1  -0.20082    -0.34410     0.03560     0.16268     0.36604    -0.03462
  
  S  C   2   0.00946     0.00516     0.01907    -0.01707     0.00545    -0.00243
 PX  C   2  -0.00655    -0.01007     0.00013     0.00624     0.01098    -0.00561
 PY  C   2  -0.01992    -0.02684    -0.01183     0.02531     0.02012    -0.01666
 PZ  C   2   0.25614     0.27675     0.24251    -0.32467    -0.14885     0.15626
  
  S  C   3  -0.00777     0.00251    -0.02562     0.01701    -0.01386     0.00928
 PX  C   3  -0.00360    -0.00113     0.00651    -0.01257     0.00603     0.01436
 PY  C   3  -0.00467     0.00117     0.00865    -0.01465     0.00161     0.01466
 PZ  C   3   0.12268     0.17133    -0.29827     0.26961    -0.23521    -0.22966
  
  S  C   4  -0.00369    -0.01323     0.00733    -0.00961    -0.00157    -0.01532
 PX  C   4   0.00100    -0.00664     0.01004    -0.00477     0.00858    -0.00309
 PY  C   4   0.00441    -0.00909     0.00134     0.01106     0.00395    -0.01412
 PZ  C   4   0.14207    -0.27429     0.20398     0.24981     0.29646    -0.18574
  
  S  C   5   0.01137     0.01307     0.00990    -0.00410     0.01611     0.01412
 PX  C   5   0.00407     0.00794    -0.00173     0.00365    -0.00061     0.00283
 PY  C   5  -0.00973    -0.00833    -0.01226     0.01253    -0.00850    -0.00848
 PZ  C   5   0.24865     0.27472     0.23794    -0.31522     0.09844     0.19756
  
  S  C   6  -0.00607    -0.00576    -0.00726     0.00358    -0.01371    -0.01091
 PX  C   6   0.00059    -0.00360     0.00481    -0.00264     0.00399     0.00019
 PY  C   6   0.00712    -0.00857     0.01916    -0.00641     0.02245     0.00455
 PZ  C   6  -0.20532    -0.00041    -0.33423     0.15881    -0.34568    -0.12347
  
  S  C   7   0.01406     0.00329     0.01686     0.00207    -0.00421    -0.03660
 PX  C   7   0.00660     0.00106    -0.00019     0.01245    -0.00637    -0.01812
 PY  C   7   0.00097    -0.00027     0.00642     0.00030     0.00062    -0.01203
 PZ  C   7  -0.36760    -0.13670    -0.11476    -0.24623     0.15604     0.33553
  
  S  C   8   0.01574    -0.00141     0.00410     0.01348     0.00930     0.03016
 PX  C   8   0.03671     0.00673     0.01252     0.02682     0.02293    -0.00977
 PY  C   8  -0.03694    -0.01505    -0.00893    -0.02633    -0.02195     0.02771
 PZ  C   8  -0.36317    -0.14930    -0.11619    -0.25335    -0.24038     0.29262
  
  S  C   9  -0.00707     0.03126    -0.00478    -0.00849    -0.01078    -0.07044
 PX  C   9   0.00406    -0.03750     0.01830    -0.00723     0.00249     0.00668
 PY  C   9   0.00343    -0.02038    -0.00166    -0.00912    -0.00357     0.01033
 PZ  C   9   0.00732     0.42241    -0.11670     0.06158     0.02439    -0.24856
  
  S  C  10  -0.01389    -0.00940    -0.02541    -0.00750    -0.00168     0.06387
 PX  C  10  -0.00099     0.01335    -0.01515    -0.00002    -0.00295     0.00284
 PY  C  10  -0.00261    -0.00457    -0.00983    -0.00221    -0.00265     0.02257
 PZ  C  10   0.02381    -0.07625     0.42606     0.01829     0.03795    -0.26571
  
  S  C  11   0.01818     0.00702    -0.00952    -0.00104     0.00930    -0.03897
 PX  C  11  -0.02643     0.01089    -0.00750    -0.01745     0.01656    -0.00558
 PY  C  11   0.01180     0.00030    -0.01680    -0.00472     0.00229    -0.00326
 PZ  C  11   0.37080    -0.19605    -0.16227     0.17447    -0.23780     0.31160
  
  S  H  12  -0.00745    -0.00524     0.00505     0.00034    -0.00632     0.02201
  
  S  C  13   0.01266    -0.00636     0.00123     0.03439     0.01956     0.06972
 PX  C  13  -0.02347     0.02302     0.00843     0.00799    -0.01097    -0.00511
 PY  C  13  -0.00686     0.01038    -0.00108    -0.00261    -0.00561    -0.01477
 PZ  C  13   0.34564    -0.14660    -0.17915     0.16285     0.17967     0.35044
  
  S  H  14  -0.00583    -0.00128    -0.00579    -0.00394     0.00625     0.02305
  
  S  H  15  -0.00090     0.00285    -0.00110    -0.00350    -0.00845    -0.00261
  
  S  H  16  -0.00583    -0.00060    -0.01290     0.00982    -0.00546     0.00091
  
  S  H  17  -0.00418    -0.00290    -0.00711     0.00295    -0.01159    -0.00750
  
  S  H  18   0.00465     0.00683     0.00315    -0.00334     0.00548     0.00809
  
  S  H  19  -0.00376     0.00341     0.00143    -0.00360     0.00313    -0.01643
  
  S  H  20  -0.00676     0.00346     0.00363    -0.01733    -0.01141    -0.04102
  
  S  C  21  -0.00457     0.00926    -0.01462    -0.02343     0.01369    -0.03962
 PX  C  21   0.01961    -0.02179    -0.00519    -0.00541    -0.01391     0.00757
 PY  C  21  -0.01707     0.01784     0.01572     0.02418     0.00646     0.01800
 PZ  C  21  -0.21320     0.22967     0.23273     0.33662     0.07966     0.24252
  
  S  C  22   0.00698    -0.01109    -0.00488    -0.00825    -0.00318     0.00636
 PX  C  22   0.00429    -0.01019     0.00469    -0.00599    -0.01466    -0.01070
 PY  C  22   0.00899    -0.00757    -0.00862    -0.01267     0.00321    -0.01067
 PZ  C  22   0.21436    -0.33604     0.02118    -0.17936    -0.31155    -0.15048
  
  S  C  23  -0.00921    -0.00493     0.01858    -0.00081    -0.02654    -0.01930
 PX  C  23   0.00928     0.00418    -0.01521     0.00098     0.01686     0.00987
 PY  C  23  -0.00054     0.00005     0.00048    -0.00011    -0.00086     0.00129
 PZ  C  23   0.17887     0.02437    -0.34818    -0.19055     0.35249    -0.06180
  
  S  C  24  -0.00062     0.01152     0.00298     0.03412     0.00507     0.05155
 PX  C  24  -0.01624     0.01201     0.00993     0.00418    -0.00322    -0.00633
 PY  C  24  -0.00456    -0.00409    -0.00119    -0.01958    -0.00079    -0.02539
 PZ  C  24  -0.22248     0.22137     0.24798     0.34082    -0.16055     0.19660
  
  S  H  25   0.00199    -0.00102     0.00910     0.01874    -0.00274     0.02646
  
  S  H  26  -0.00783     0.01123     0.00536     0.00998     0.00547    -0.00031
  
  S  H  27   0.00612     0.00510    -0.01078     0.00528     0.01843     0.01605
  
  S  H  28   0.00215    -0.00668    -0.00358    -0.01883     0.00114    -0.02774
  
  S  C  29   0.02047    -0.02565     0.03335     0.05248    -0.03521     0.07871
 PX  C  29   0.00215    -0.00465     0.00314    -0.00382    -0.00859    -0.01064
 PY  C  29   0.01585    -0.00395     0.00106     0.02213    -0.00416     0.02420
 PZ  C  29  -0.17477     0.22666    -0.25107    -0.22402     0.28089    -0.19887
  
  S  C  30  -0.01684    -0.00900    -0.00288    -0.06322    -0.00678    -0.09158
 PX  C  30   0.00799    -0.00530    -0.00901    -0.01086     0.01457    -0.00784
 PY  C  30   0.01577     0.00486    -0.00479     0.02515     0.00340     0.03152
 PZ  C  30  -0.13033    -0.25152     0.22965    -0.23669    -0.23731    -0.26455




    ROOT NO.   49          50          51          52          53          54

             2.33946     2.43206     2.81103     3.06353     3.26770     3.33495
  
  
  S  C   1   0.08618     0.13923    -0.20076     0.03511    -0.19851    -0.19950
 PX  C   1   0.00208     0.04274    -0.02556     0.00415     0.03246    -0.08728
 PY  C   1  -0.01326     0.03269    -0.04144    -0.02353    -0.06492     0.02311
 PZ  C   1   0.31663    -0.08959     0.00839     0.20748     0.04340     0.08367
  
  S  C   2  -0.10645    -0.20170     0.22915    -0.04992     0.09314     0.27669
 PX  C   2  -0.00165    -0.02781    -0.00449     0.00719    -0.07048     0.00236
 PY  C   2  -0.00324    -0.05709     0.03038     0.01848    -0.02470     0.02356
 PZ  C   2  -0.23218     0.05530    -0.00656    -0.21894    -0.05152    -0.10690
  
  S  C   3   0.12591     0.26517    -0.22447     0.00812     0.03115    -0.17199
 PX  C   3  -0.01143    -0.00752     0.07861    -0.01665     0.10379    -0.04757
 PY  C   3   0.00031     0.02144    -0.00452    -0.04267     0.00519     0.14640
 PZ  C   3   0.08710     0.01023    -0.01686     0.28871     0.05621     0.15855
  
  S  C   4  -0.12234    -0.25214     0.23366     0.06261     0.06755    -0.19144
 PX  C   4  -0.00029    -0.02094    -0.03077    -0.00193    -0.09048     0.03821
 PY  C   4   0.01766     0.02374    -0.05648     0.02492    -0.01437    -0.14384
 PZ  C   4  -0.09675     0.01568     0.04143    -0.28961    -0.04412    -0.13779
  
  S  C   5   0.10458     0.17209    -0.21207    -0.04518    -0.18457     0.17366
 PX  C   5   0.02315     0.05733    -0.03176    -0.02574     0.03261     0.06722
 PY  C   5  -0.02149    -0.00856     0.02957    -0.01710     0.04844     0.02137
 PZ  C   5   0.24779    -0.08077    -0.00136     0.23268     0.05202     0.07624
  
  S  C   6  -0.08982    -0.13512     0.21099     0.00044     0.26664    -0.01471
 PX  C   6  -0.01014    -0.02948     0.02542     0.00857     0.00441    -0.00120
 PY  C   6   0.01654    -0.01535    -0.00277     0.03730    -0.00984    -0.10944
 PZ  C   6  -0.32766     0.10086    -0.00899    -0.21470    -0.05230    -0.07897
  
  S  C   7  -0.09982    -0.23317     0.05557     0.04135    -0.21595     0.18848
 PX  C   7   0.01456     0.01913    -0.09521     0.02045    -0.07578    -0.01611
 PY  C   7  -0.01217    -0.04422    -0.04135     0.00865    -0.07463     0.00772
 PZ  C   7   0.10802    -0.11297     0.03380    -0.14681    -0.04530    -0.08964
  
  S  C   8   0.07725     0.23276    -0.08249    -0.10241     0.08796     0.29244
 PX  C   8  -0.00289     0.01823     0.08314    -0.04245     0.08330     0.02987
 PY  C   8  -0.03688    -0.03868     0.05543     0.01603     0.03806    -0.00330
 PZ  C   8  -0.11691     0.04104    -0.06976     0.13453     0.00440     0.11056
  
  S  C   9  -0.04718    -0.25212    -0.05981     0.14083    -0.22913    -0.27406
 PX  C   9  -0.01941     0.00601    -0.08534    -0.00862    -0.03829     0.07634
 PY  C   9   0.00643     0.02736    -0.01721     0.00929     0.10050    -0.11154
 PZ  C   9   0.32806    -0.06456     0.09266    -0.01582     0.03970    -0.03495
  
  S  C  10   0.08564     0.26379     0.09749    -0.05969     0.34866    -0.11045
 PX  C  10   0.00848    -0.00624     0.08288     0.04132    -0.00724    -0.09202
 PY  C  10  -0.00498     0.01102     0.03798    -0.03218     0.01443     0.14749
 PZ  C  10  -0.29759     0.17559    -0.04364     0.00855     0.01899     0.06174
  
  S  C  11  -0.05346    -0.23863    -0.20236    -0.03691    -0.19325     0.19834
 PX  C  11   0.01462     0.03822    -0.04105    -0.04822     0.11354    -0.00127
 PY  C  11   0.00433    -0.03011    -0.05809    -0.02722     0.04982     0.01748
 PZ  C  11   0.12626    -0.08635    -0.01405     0.13356     0.04738    -0.03314
  
  S  H  12   0.02866     0.13301     0.12203     0.01411     0.11746    -0.08604
  
  S  C  13   0.02467     0.19137     0.14358    -0.09609     0.03066     0.25008
 PX  C  13   0.00497    -0.00398     0.07157     0.04557    -0.09731    -0.03897
 PY  C  13  -0.00832    -0.04819     0.00491     0.03167    -0.05927    -0.05192
 PZ  C  13  -0.16939    -0.02653    -0.05612    -0.14543    -0.04317    -0.02145
  
  S  H  14   0.05416     0.12554    -0.03785    -0.04419     0.12742    -0.06973
  
  S  H  15  -0.05192    -0.07961     0.11213    -0.02139     0.10772     0.12473
  
  S  H  16   0.06592     0.12141    -0.15561     0.03513    -0.08237    -0.16454
  
  S  H  17  -0.06080    -0.09540     0.12759     0.02280     0.11350    -0.08346
  
  S  H  18   0.05857     0.09139    -0.14253     0.00044    -0.18444     0.01653
  
  S  H  19  -0.04057    -0.13517     0.04899     0.04761    -0.07974    -0.14756
  
  S  H  20  -0.01052    -0.10403    -0.08658     0.05143    -0.03880    -0.11613
  
  S  C  21  -0.01054    -0.14361    -0.23039    -0.12259     0.12699     0.15408
 PX  C  21   0.02040     0.05265     0.06194     0.00749     0.03098    -0.04319
 PY  C  21  -0.01692     0.00017    -0.02309     0.01394     0.04877    -0.00320
 PZ  C  21  -0.23035     0.03519    -0.09671     0.25816     0.06247     0.01827
  
  S  C  22   0.01387     0.10247     0.19737     0.08330    -0.21416    -0.08503
 PX  C  22   0.01250    -0.02904    -0.03285    -0.02398     0.02511    -0.00258
 PY  C  22  -0.00180    -0.01095    -0.00340    -0.01557    -0.05600     0.06149
 PZ  C  22   0.30091    -0.08870     0.07462    -0.25019    -0.04789    -0.01390
  
  S  C  23   0.01112    -0.09837    -0.17587    -0.05288     0.25861    -0.06746
 PX  C  23  -0.00591     0.02322     0.02089    -0.01057    -0.01238     0.05059
 PY  C  23   0.00307     0.01947     0.03926     0.02114    -0.03722    -0.03538
 PZ  C  23  -0.28582     0.11572    -0.06311     0.24146     0.06371     0.02030
  
  S  C  24   0.02023     0.12896     0.23024     0.00646    -0.25604     0.12723
 PX  C  24  -0.00207    -0.02299    -0.01225     0.01181    -0.03373    -0.02611
 PY  C  24  -0.00767    -0.03666    -0.04483     0.00780     0.01055    -0.02471
 PZ  C  24   0.19792    -0.12864     0.01411    -0.25779    -0.03063    -0.04315
  
  S  H  25  -0.00395     0.07739     0.13139     0.07983    -0.09502    -0.07143
  
  S  H  26  -0.01585    -0.06627    -0.12919    -0.04745     0.13215     0.06617
  
  S  H  27  -0.01064     0.05615     0.09478     0.02895    -0.14657     0.05352
  
  S  H  28  -0.01457    -0.07614    -0.15189    -0.01353     0.17449    -0.05811
  
  S  C  29   0.02731     0.21325     0.28970     0.11926    -0.04770    -0.15841
 PX  C  29  -0.00841    -0.03494    -0.00811     0.03302    -0.05078    -0.03130
 PY  C  29  -0.00705    -0.00935     0.03799    -0.00386    -0.11791     0.10439
 PZ  C  29   0.06045     0.04304     0.11350    -0.27762    -0.07646    -0.04100
  
  S  C  30  -0.02383    -0.18477    -0.26518    -0.00164     0.16078    -0.12346
 PX  C  30  -0.00002     0.00260    -0.05803    -0.05850     0.06963     0.09091
 PY  C  30   0.00016     0.02872     0.02311     0.02315     0.05919    -0.08264
 PZ  C  30  -0.01467     0.08628     0.01611     0.30500     0.04395     0.04721




    ROOT NO.   55          56          57          58          59          60

             3.54018     3.60128     3.74107     3.83587     4.13808     4.17683
  
  
  S  C   1   0.07026    -0.29221    -0.14919    -0.10617     0.02189     0.03633
 PX  C   1   0.04306     0.08967     0.02516    -0.12357     0.10205    -0.00004
 PY  C   1  -0.03292    -0.08308    -0.02236     0.06680    -0.03183    -0.01334
 PZ  C   1   0.10480     0.00500     0.00284     0.01996    -0.00942     0.00227
  
  S  C   2  -0.12873    -0.01065     0.01659     0.28741    -0.21533    -0.00998
 PX  C   2   0.00318    -0.16910    -0.08152     0.02362    -0.02196     0.01065
 PY  C   2   0.02196    -0.09103    -0.05048    -0.02551     0.06406     0.00075
 PZ  C   2  -0.13251    -0.00790    -0.00605    -0.04199     0.03417    -0.00623
  
  S  C   3   0.02610     0.31888     0.15795    -0.12074    -0.03196     0.03852
 PX  C   3  -0.01314     0.00003    -0.04658     0.02485    -0.17304     0.06548
 PY  C   3  -0.08596     0.07857     0.07194     0.14364    -0.04148    -0.03897
 PZ  C   3   0.25643    -0.01970    -0.00648     0.06667    -0.04618     0.01262
  
  S  C   4   0.11714    -0.25623    -0.19694    -0.12270    -0.06115     0.07008
 PX  C   4  -0.05314    -0.07899     0.01404     0.13620    -0.13455     0.00445
 PY  C   4   0.02243     0.09252     0.06334    -0.05524    -0.10748     0.05873
 PZ  C   4  -0.25776     0.00061    -0.00534    -0.04369     0.03845    -0.02007
  
  S  C   5  -0.14921    -0.03561     0.08692     0.28878    -0.21197    -0.01687
 PX  C   5  -0.03091     0.16019     0.08906    -0.01036     0.06027    -0.01081
 PY  C   5  -0.01979     0.09976     0.05152     0.01174    -0.01928    -0.00183
 PZ  C   5   0.15144     0.01469     0.00437     0.00359    -0.00902     0.01096
  
  S  C   6   0.04203     0.35907     0.12381    -0.15017     0.09743     0.00925
 PX  C   6   0.01222    -0.03590    -0.02492    -0.00347     0.02360    -0.01020
 PY  C   6   0.07181    -0.07939    -0.06983    -0.12047     0.07190     0.01829
 PZ  C   6  -0.10957    -0.02430    -0.01158    -0.01250     0.01026    -0.00504
  
  S  C   7   0.00959    -0.16602     0.03755     0.03142     0.34409    -0.16065
 PX  C   7   0.01613     0.11256     0.10051    -0.05912     0.06065    -0.00038
 PY  C   7  -0.00807     0.05300     0.06367    -0.03340    -0.04186     0.04735
 PZ  C   7  -0.24984    -0.00522    -0.00130    -0.05489     0.05329    -0.01567
  
  S  C   8  -0.05334     0.06292    -0.04906     0.02668     0.34779    -0.15167
 PX  C   8   0.00599    -0.09319    -0.11777    -0.06889    -0.01504     0.05940
 PY  C   8   0.05101    -0.06828    -0.06910    -0.03046     0.05582    -0.01042
 PZ  C   8   0.23370     0.00776     0.01255     0.05219    -0.02601     0.01420
  
  S  C   9   0.00520     0.12119     0.23866     0.06159    -0.10662    -0.09354
 PX  C   9  -0.00181     0.06008     0.02054     0.05312     0.15620    -0.10853
 PY  C   9   0.00984     0.01357    -0.07185     0.08746    -0.05807    -0.12294
 PZ  C   9  -0.33152    -0.03277    -0.04555    -0.08616     0.05515    -0.00738
  
  S  C  10   0.01838    -0.08546    -0.23050     0.05573    -0.13342    -0.04472
 PX  C  10  -0.00596    -0.05581     0.06106     0.09001     0.03708    -0.17281
 PY  C  10  -0.00718    -0.08210    -0.06521    -0.01263     0.14898    -0.00004
 PZ  C  10   0.33338     0.00762     0.00932     0.07865    -0.04132    -0.00231
  
  S  C  11  -0.02654     0.13569    -0.03764    -0.16205     0.00028     0.32846
 PX  C  11   0.02551     0.00559    -0.13897    -0.03044    -0.05930     0.02814
 PY  C  11   0.00150     0.01139    -0.09169    -0.00838    -0.02436    -0.09097
 PZ  C  11  -0.23567    -0.01364    -0.03663    -0.04680     0.00550    -0.01935
  
  S  H  12   0.01719    -0.10626     0.02119     0.09037     0.01568    -0.31587
  
  S  C  13   0.00816    -0.14261     0.03309    -0.19593    -0.01320     0.34513
 PX  C  13  -0.00221    -0.00828     0.14913    -0.05285    -0.03826    -0.05301
 PY  C  13   0.00921     0.01861     0.06594    -0.02285    -0.03082     0.03916
 PZ  C  13   0.25790     0.03509     0.02218     0.08760    -0.01509    -0.02736
  
  S  H  14  -0.03172     0.11938    -0.02127    -0.01070    -0.29216     0.16155
  
  S  H  15  -0.03886     0.16588     0.08681     0.05633     0.02714    -0.03608
  
  S  H  16   0.09292    -0.00487    -0.01211    -0.21600     0.22111    -0.00960
  
  S  H  17   0.09719     0.01070    -0.06787    -0.20122     0.20254    -0.00413
  
  S  H  18  -0.02274    -0.25884    -0.09459     0.09457    -0.02844    -0.01909
  
  S  H  19   0.00862    -0.05037     0.04513    -0.01025    -0.29279     0.15370
  
  S  H  20  -0.01059     0.09816    -0.02550     0.10889     0.02386    -0.30478
  
  S  C  21   0.03487    -0.05782    -0.03444    -0.26417    -0.20534    -0.27632
 PX  C  21   0.00654    -0.08647     0.16820    -0.00788    -0.01840    -0.04258
 PY  C  21  -0.01592    -0.06106     0.09612    -0.00329     0.02117     0.03672
 PZ  C  21  -0.16170    -0.00548    -0.03976    -0.04538    -0.01239    -0.02363
  
  S  C  22  -0.00510     0.23203    -0.30800     0.18942     0.09097     0.08921
 PX  C  22   0.00926    -0.00672    -0.00299     0.00984     0.00047    -0.02435
 PY  C  22   0.01073     0.06308    -0.11857    -0.09762    -0.08912    -0.10669
 PZ  C  22   0.12655     0.00300     0.02965     0.02352     0.00138     0.00863
  
  S  C  23  -0.00305    -0.22477     0.32060     0.07244     0.08076     0.06210
 PX  C  23   0.00828    -0.04092     0.07417    -0.11317    -0.07516    -0.10410
 PY  C  23  -0.00262     0.04826    -0.06151     0.07503     0.04345     0.03073
 PZ  C  23  -0.12523    -0.03458     0.02087    -0.03023     0.00488     0.00628
  
  S  C  24   0.03508     0.07656    -0.02733    -0.26532    -0.19539    -0.25508
 PX  C  24  -0.00132     0.09747    -0.16956     0.05863     0.00951     0.01471
 PY  C  24  -0.00235     0.04990    -0.09901     0.01493    -0.03402    -0.05847
 PZ  C  24   0.15888     0.02100     0.00284     0.07307     0.01570     0.01256
  
  S  H  25  -0.03145     0.03999     0.02687     0.15895     0.15392     0.24925
  
  S  H  26  -0.00391    -0.15012     0.20306    -0.13047    -0.05101    -0.01621
  
  S  H  27  -0.00222     0.12581    -0.18528    -0.04998    -0.03905     0.00913
  
  S  H  28  -0.02621    -0.06183     0.01994     0.17443     0.15537     0.24260
  
  S  C  29  -0.02033    -0.11790     0.31389     0.11997     0.07783     0.00155
 PX  C  29  -0.02378     0.06578    -0.05808     0.10695     0.09333     0.14839
 PY  C  29  -0.00581    -0.00486     0.09778    -0.13661    -0.02708     0.10830
 PZ  C  29   0.26186    -0.00570     0.09899     0.09335     0.01957     0.01355
  
  S  C  30  -0.01852     0.11962    -0.30216     0.21731     0.06236    -0.03046
 PX  C  30   0.00076    -0.03198    -0.05426    -0.03327     0.01924     0.15630
 PY  C  30  -0.00966    -0.06216     0.11138     0.12986     0.09706     0.08478
 PZ  C  30  -0.27541    -0.04050     0.00568    -0.11148    -0.00605     0.01078




    ROOT NO.   61          62          63          64          65          66

             5.12707     5.38563     5.56971     5.65213     6.06766     6.40314
  
  
  S  C   1   0.04277    -0.33245    -0.06929     0.15113    -0.07008    -0.01703
 PX  C   1  -0.11094     0.06227     0.05774    -0.14645     0.10515     0.03575
 PY  C   1   0.05784     0.26072     0.02623    -0.05111     0.01818     0.00185
 PZ  C   1   0.00355     0.03590     0.00556    -0.01247     0.00688     0.00225
  
  S  C   2   0.14630    -0.04470    -0.06027     0.15537    -0.10532    -0.04113
 PX  C   2   0.05395    -0.20879    -0.05081     0.11427    -0.05553    -0.01756
 PY  C   2  -0.05457     0.05108     0.05728    -0.16688     0.20607     0.13805
 PZ  C   2  -0.01170     0.00093     0.00592    -0.01626     0.01738     0.01039
  
  S  C   3  -0.01118     0.06778    -0.02864     0.09329    -0.17217    -0.11649
 PX  C   3   0.16135     0.00942    -0.02709     0.03879     0.08456     0.09793
 PY  C   3   0.03718    -0.01463    -0.03544     0.11250    -0.14613    -0.10504
 PZ  C   3   0.01001    -0.00909    -0.00104    -0.00053     0.00957     0.00766
  
  S  C   4   0.04181    -0.02422     0.02048    -0.08249     0.15493     0.10661
 PX  C   4  -0.14691    -0.04348     0.05195    -0.12887     0.09140     0.03380
 PY  C   4  -0.08427     0.08165     0.00182     0.01574    -0.14982    -0.12681
 PZ  C   4   0.00412     0.00871     0.00061     0.00129     0.00013     0.00039
  
  S  C   5  -0.19877    -0.10353     0.06305    -0.15908     0.12361     0.04443
 PX  C   5  -0.01534    -0.00291    -0.02502     0.07493    -0.12629    -0.08008
 PY  C   5  -0.13499    -0.18711     0.03312    -0.09822     0.12610     0.07074
 PZ  C   5   0.00049    -0.00444    -0.00154     0.00277    -0.00106     0.00060
  
  S  C   6  -0.14316    -0.23899     0.00711    -0.03109     0.03356     0.01273
 PX  C   6   0.13855     0.32303    -0.00420     0.03218    -0.06086    -0.02822
 PY  C   6   0.09286    -0.10061    -0.05801     0.13950    -0.09427    -0.03056
 PZ  C   6   0.01132     0.00100    -0.00399     0.01035    -0.00710    -0.00239
  
  S  C   7  -0.23316    -0.01881     0.03244    -0.04333    -0.10169    -0.11791
 PX  C   7  -0.05730    -0.00099    -0.02276     0.06563    -0.13666    -0.10179
 PY  C   7   0.08983     0.01699    -0.05079     0.07984     0.09850     0.29340
 PZ  C   7  -0.01551     0.00056     0.00058     0.00041    -0.01019    -0.00839
  
  S  C   8   0.22289    -0.07569    -0.03852     0.07075     0.09499     0.10721
 PX  C   8  -0.04326    -0.01778     0.02266    -0.09222    -0.01635    -0.10749
 PY  C   8   0.09493    -0.07305    -0.01281     0.01047     0.15227     0.18723
 PZ  C   8  -0.00294    -0.00092     0.00040    -0.00543    -0.00811    -0.01700
  
  S  C   9   0.02042     0.04506    -0.02474     0.12961     0.00992     0.14748
 PX  C   9   0.17012    -0.04848    -0.02723     0.04256     0.08481     0.09949
 PY  C   9   0.08579    -0.03063     0.06019    -0.10805     0.05153    -0.19829
 PZ  C   9   0.01163    -0.00859     0.00035    -0.00964     0.00827    -0.01144
  
  S  C  10  -0.00267    -0.01093     0.07584    -0.13822     0.00753    -0.21785
 PX  C  10  -0.14998     0.04245     0.00528     0.07648    -0.07469     0.09047
[...]
  S   H   18   -0.0647   -0.0304    0.0321   -0.0446   -0.0072    0.2848    0.0052    0.1232
  S   H   19   -0.1567   -0.2128   -0.2852    0.1265   -0.1356    0.0567   -0.0080    0.0064
  S   H   20    0.1624   -0.2213   -0.3013   -0.1648   -0.0776   -0.0115    0.0500    0.0367
  S   C   21    0.1346   -0.0519    0.0208    0.0135   -0.0019   -0.0007    0.0678    0.0581
  Px  C   21    0.1373   -0.1014    0.1671    0.1877   -0.2363    0.0041   -0.0801   -0.1311
  Py  C   21   -0.1390    0.0786   -0.0483   -0.0584    0.0713   -0.0029    0.2609    0.1601
  Pz  C   21    0.0143   -0.0087    0.0139    0.0157   -0.0197    0.0005   -0.0183   -0.0193
  S   C   22    0.0456   -0.0091   -0.0419   -0.0388    0.0396    0.0004   -0.0984   -0.0103
  Px  C   22    0.0524   -0.0172   -0.0468   -0.0464    0.0446   -0.0018    0.5029    0.0004
  Py  C   22    0.1091   -0.0398    0.0389    0.0387   -0.0464    0.0008   -0.0561    0.0884
  Pz  C   22   -0.0067    0.0024    0.0008    0.0004    0.0007   -0.0000   -0.0119   -0.0001
  S   C   23   -0.0861    0.0286   -0.0410   -0.0380    0.0382   -0.0004    0.0972   -0.0435
  Px  C   23   -0.1235    0.0377    0.0165    0.0180   -0.0320   -0.0010   -0.2085    0.1032
  Py  C   23   -0.0278    0.0143   -0.0486   -0.0459    0.0407    0.0007   -0.4616    0.1290
  Pz  C   23   -0.0029    0.0006   -0.0052   -0.0050    0.0055   -0.0000    0.0169   -0.0085
  S   C   24   -0.1282    0.0378    0.0221    0.0133   -0.0017   -0.0002   -0.0610    0.0306
  Px  C   24    0.0761   -0.0295    0.0475    0.0518   -0.0699   -0.0001   -0.1859    0.1041
  Py  C   24   -0.1959    0.0968    0.1965    0.2007   -0.2116   -0.0008    0.2254   -0.0684
  Pz  C   24    0.0025    0.0008    0.0019    0.0023   -0.0022    0.0001    0.0151   -0.0084
  S   H   25   -0.2143    0.1145   -0.1133   -0.1249    0.1482   -0.0030    0.1529    0.1209
  S   H   26   -0.0738    0.0247    0.0433    0.0393   -0.0332    0.0009   -0.3136    0.0041
  S   H   27    0.1252   -0.0434    0.0296    0.0246   -0.0122    0.0001    0.3199   -0.1034
  S   H   28    0.2286   -0.0905   -0.1261   -0.1243    0.1208    0.0004   -0.1685    0.0627
  S   C   29    0.1592   -0.1130    0.1249    0.1531   -0.2212    0.0007    0.0104   -0.0180
  Px  C   29   -0.1030    0.0450    0.0144    0.0350   -0.0859    0.0048   -0.0958   -0.1728
  Py  C   29    0.1477   -0.1280   -0.0863   -0.0985    0.1470   -0.0015   -0.0468   -0.1310
  Pz  C   29    0.0292   -0.0208    0.0121    0.0188   -0.0343    0.0001    0.0019   -0.0068
  S   C   30   -0.1623    0.0932    0.1537    0.1666   -0.2102    0.0016   -0.0027    0.0044
  Px  C   30   -0.0864    0.0989   -0.0167   -0.0294    0.0688   -0.0003    0.0786    0.0359
  Py  C   30    0.1558   -0.0970    0.0339    0.0709   -0.1558   -0.0028    0.0642   -0.0265
  Pz  C   30    0.0213   -0.0135   -0.0067   -0.0091    0.0151   -0.0002    0.0051   -0.0021


   Root No.      73        74        75        76        77        78        79        80

                73 A      74 A      75 A      76 A      77 A      78 A      79 A      80 A   

                 9.325     9.501    10.113    10.575    11.039    11.610    11.769    12.085
  
  S   C    1   -0.0672   -0.0409   -0.0568   -0.0561    0.0494    0.0188    0.0119    0.0106
  Px  C    1   -0.2025   -0.1748    0.0304   -0.2232   -0.1200   -0.1307   -0.1593    0.2273
  Py  C    1   -0.1760   -0.0427   -0.2371   -0.0280    0.2283    0.1367    0.1370   -0.1235
  Pz  C    1   -0.0257   -0.0121   -0.0207   -0.0125    0.0160    0.0070    0.0061   -0.0019
  S   C    2    0.0543    0.0634   -0.0650    0.0389    0.0804    0.0578    0.0225   -0.0003
  Px  C    2   -0.2015   -0.1685   -0.0350   -0.2409   -0.0304   -0.0712   -0.1429    0.2534
  Py  C    2    0.0909    0.1295   -0.1958   -0.0273    0.1797    0.1054   -0.0362    0.1476
  Pz  C    2    0.0020    0.0056   -0.0152   -0.0079    0.0116    0.0052   -0.0069    0.0172
  S   C    3    0.0399    0.0412   -0.0055    0.0589    0.0297    0.0277    0.0124   -0.0058
  Px  C    3   -0.0025    0.1142   -0.2470   -0.0636    0.0146   -0.1986    0.0717   -0.1231
  Py  C    3    0.0033    0.0182   -0.1511   -0.0776    0.2465    0.2501   -0.1526    0.3810
  Pz  C    3   -0.0042    0.0008   -0.0107   -0.0069    0.0059    0.0011   -0.0037    0.0090
  S   C    4    0.0158    0.0393    0.0079    0.0512   -0.0396   -0.0257   -0.0134    0.0012
  Px  C    4    0.2036    0.0121    0.2702   -0.1589   -0.1795   -0.1280    0.0911   -0.1506
  Py  C    4    0.1667    0.0546    0.1306   -0.0025    0.1324    0.2929   -0.1441    0.3625
  Pz  C    4   -0.0073   -0.0020   -0.0080    0.0041    0.0014   -0.0033    0.0047   -0.0070
  S   C    5    0.0698    0.0456    0.0708    0.0167   -0.0843   -0.0578   -0.0254    0.0077
  Px  C    5    0.1257   -0.0326    0.1861   -0.1939   -0.0910   -0.0805    0.1189   -0.1700
  Py  C    5   -0.2281   -0.1853   -0.1186   -0.1380    0.1681    0.1078    0.1052   -0.0866
  Pz  C    5   -0.0115   -0.0094   -0.0084   -0.0072    0.0111    0.0068    0.0050   -0.0031
  S   C    6   -0.0223   -0.0602    0.0544   -0.0776   -0.0346   -0.0265   -0.0069    0.0100
  Px  C    6   -0.0331   -0.1502    0.1480   -0.1665   -0.0791   -0.0537   -0.0154    0.0236
  Py  C    6   -0.1257   -0.0843   -0.1768   -0.0968    0.2601    0.1701    0.2152   -0.2131
  Pz  C    6   -0.0078   -0.0062   -0.0093   -0.0066    0.0149    0.0096    0.0136   -0.0141
  S   C    7    0.0308   -0.0188    0.0816    0.0859    0.0363    0.0827    0.0277    0.0128
  Px  C    7    0.0400    0.1158   -0.1596    0.0157    0.0375   -0.1296    0.1157   -0.1323
  Py  C    7    0.0964    0.0016    0.1249    0.2386    0.1020    0.1165    0.1316   -0.0153
  Pz  C    7    0.0001    0.0009    0.0006    0.0028    0.0006    0.0001    0.0020   -0.0014
  S   C    8   -0.1131    0.0099   -0.0748    0.0794   -0.0538   -0.0664   -0.0326   -0.0361
  Px  C    8   -0.1691    0.1131    0.0144    0.1844   -0.1465   -0.0173   -0.1904    0.1221
  Py  C    8    0.3232    0.0169    0.1987   -0.1350    0.0607    0.1447   -0.0112    0.1678
  Pz  C    8   -0.0517    0.0098   -0.0223    0.0324   -0.0246   -0.0214   -0.0199   -0.0045
  S   C    9   -0.0017   -0.0332   -0.0445    0.0007   -0.0048   -0.0288   -0.0142   -0.0160
  Px  C    9   -0.2689    0.1102   -0.0465    0.2289   -0.2124   -0.0821   -0.2025    0.0789
  Py  C    9   -0.1685    0.0088    0.1337    0.1093   -0.1007    0.1360    0.3884    0.0457
  Pz  C    9   -0.0286    0.0134    0.0072    0.0252   -0.0212    0.0041    0.0039    0.0116
  S   C   10   -0.0131   -0.0377    0.0444   -0.0012    0.0005    0.0406    0.0150   -0.0062
  Px  C   10    0.1464    0.0051   -0.0510    0.2770    0.1462   -0.0325   -0.2255   -0.0938
  Py  C   10    0.0733    0.0422    0.1332    0.1345    0.0926    0.1528    0.3743   -0.0258
  Pz  C   10    0.0059   -0.0019    0.0055    0.0172    0.0082    0.0076    0.0044   -0.0081
  S   C   11   -0.0555   -0.0473    0.0661   -0.0830   -0.0223    0.0659    0.0247   -0.0112
  Px  C   11    0.0860   -0.0363    0.0114    0.2266    0.1077    0.0392   -0.2153   -0.1115
  Py  C   11   -0.1192   -0.1743    0.1653   -0.1084   -0.0039    0.1831   -0.0490   -0.1085
  Pz  C   11    0.0150    0.0083   -0.0135    0.0187    0.0066   -0.0111   -0.0090   -0.0003
  S   H   12   -0.0850   -0.0708    0.0774   -0.1063   -0.0373    0.0873    0.0367   -0.0241
  S   C   13    0.1069   -0.0649   -0.0887   -0.0606    0.0340   -0.0723   -0.0238   -0.0071
  Px  C   13    0.1168   -0.1638   -0.1737    0.0384   -0.0766   -0.1429    0.1398    0.0827
  Py  C   13   -0.3172    0.1283    0.1332    0.1982   -0.1353    0.0924    0.1450    0.0349
  Pz  C   13    0.0029   -0.0046   -0.0064    0.0056   -0.0064   -0.0049    0.0096    0.0056
  S   H   14    0.0370   -0.0311    0.1042    0.1007    0.0436    0.0966    0.0375    0.0349
  S   H   15   -0.1632   -0.0820   -0.1139   -0.0894    0.0780    0.0285    0.0165    0.0125
  S   H   16    0.0949    0.1060   -0.0889    0.0459    0.0988    0.0740    0.0172    0.0118
  S   H   17    0.1538    0.0832    0.1135    0.0128   -0.1122   -0.0801   -0.0190   -0.0076
  S   H   18   -0.0107   -0.0824    0.0920   -0.0909   -0.0545   -0.0374   -0.0144    0.0175
  S   H   19   -0.2114    0.0249   -0.0932    0.1085   -0.0734   -0.0838   -0.0486   -0.0519
  S   H   20    0.1958   -0.1033   -0.1128   -0.0808    0.0534   -0.0949   -0.0388    0.0090
  S   C   21    0.0020    0.1111   -0.0586   -0.0475   -0.0948    0.0625    0.0263    0.0166
  Px  C   21   -0.0625   -0.0733    0.1375   -0.1372    0.1440   -0.1020    0.1105    0.1149
  Py  C   21   -0.0256    0.3634   -0.0872   -0.2045   -0.1500    0.0987    0.1077    0.0917
  Pz  C   21   -0.0043   -0.0254    0.0167    0.0026    0.0208   -0.0140    0.0013    0.0030
  S   C   22    0.0327   -0.0882   -0.0366    0.0757   -0.0420    0.0122    0.0063    0.0103
  Px  C   22   -0.1235    0.2321    0.1248   -0.1683    0.1201   -0.0331   -0.0309   -0.0397
  Py  C   22    0.0202    0.1741   -0.1335   -0.1607   -0.2435    0.1314    0.2127    0.1958
  Pz  C   22    0.0033   -0.0069   -0.0022    0.0052   -0.0014    0.0019   -0.0037   -0.0038
  S   C   23   -0.0138   -0.0737    0.0360    0.0681    0.0302   -0.0220    0.0008    0.0167
  Px  C   23   -0.0055    0.2430    0.0495   -0.2022    0.1846   -0.0685   -0.1936   -0.2293
  Py  C   23    0.0959    0.0982   -0.1782   -0.0731   -0.2179    0.1049    0.1267    0.1100
  Pz  C   23   -0.0011   -0.0168    0.0018    0.0137   -0.0039    0.0005    0.0076    0.0104
  S   C   24   -0.0316    0.1032    0.0633   -0.0324    0.1075   -0.0681   -0.0285   -0.0171
  Px  C   24    0.0006    0.2428    0.0001   -0.2292    0.0878    0.0061   -0.1751   -0.2328
  Py  C   24    0.1332   -0.2599   -0.1856   -0.0435   -0.2195    0.1799   -0.0530   -0.1090
  Pz  C   24    0.0028   -0.0211   -0.0061    0.0116   -0.0146    0.0070    0.0105    0.0111
  S   H   25    0.0075    0.1998   -0.0836   -0.0575   -0.1181    0.0838    0.0185    0.0084
  S   H   26    0.0760   -0.1363   -0.0754    0.0994   -0.0709    0.0218    0.0150    0.0198
  S   H   27   -0.0529   -0.1310    0.0797    0.1066    0.0561   -0.0362   -0.0018    0.0176
  S   H   28   -0.0682    0.1951    0.0913   -0.0366    0.1308   -0.0889   -0.0192   -0.0074
  S   C   29   -0.0183    0.0359    0.0064   -0.0694   -0.0234    0.0222    0.0181    0.0101
  Px  C   29   -0.0748   -0.1466    0.1997   -0.0829    0.2366   -0.1558    0.0861    0.0976
  Py  C   29   -0.0841   -0.1242    0.1378   -0.0156   -0.0978    0.3720   -0.1930   -0.2303
  Pz  C   29   -0.0057    0.0032    0.0047   -0.0114   -0.0090    0.0174   -0.0025   -0.0060
  S   C   30    0.0043    0.0337    0.0077   -0.0559    0.0330   -0.0067   -0.0216   -0.0205
  Px  C   30    0.1953   -0.1951   -0.2562   -0.0271   -0.0465   -0.2052    0.1008    0.0650
  Py  C   30    0.0704   -0.0780   -0.1176   -0.1246   -0.2520    0.3596   -0.1906   -0.2629
  Pz  C   30    0.0013   -0.0078   -0.0051    0.0003   -0.0162    0.0228   -0.0121   -0.0159


   Root No.      81        82        83        84

                81 A      82 A      83 A      84 A   

                12.504    12.688    13.107    14.438
  
  S   C    1    0.0574    0.0078   -0.0068    0.0330
  Px  C    1    0.0848    0.2415   -0.1537    0.0896
  Py  C    1    0.0979   -0.1430    0.0864    0.0226
  Pz  C    1    0.0124   -0.0028    0.0013    0.0055
  S   C    2    0.0226   -0.0135    0.0101    0.0261
  Px  C    2    0.1393    0.2507   -0.1561    0.1333
  Py  C    2    0.1222    0.0904   -0.0433    0.1132
  Pz  C    2    0.0111    0.0133   -0.0075    0.0105
  S   C    3   -0.0002    0.0052   -0.0118    0.0308
  Px  C    3    0.2290    0.1809   -0.2599    0.2236
  Py  C    3    0.0774    0.1234    0.0211    0.0944
  Pz  C    3    0.0089    0.0075   -0.0045    0.0073
  S   C    4   -0.0048   -0.0011    0.0069    0.0280
  Px  C    4    0.3139   -0.1432    0.0836    0.2016
  Py  C    4    0.1070   -0.0469    0.2020    0.1210
  Pz  C    4   -0.0113    0.0067   -0.0081   -0.0077
  S   C    5    0.0068    0.0207   -0.0155    0.0243
  Px  C    5    0.3190   -0.1614    0.0846    0.1684
  Py  C    5    0.1468   -0.1383    0.0928    0.0446
  Pz  C    5    0.0056   -0.0052    0.0032    0.0004
  S   C    6    0.0633    0.0014    0.0002    0.0352
  Px  C    6    0.1222    0.0064   -0.0012    0.0666
  Py  C    6    0.2093   -0.2572    0.1599    0.0600
  Pz  C    6    0.0137   -0.0164    0.0100    0.0041
  S   C    7   -0.0598    0.0025    0.0133    0.0114
  Px  C    7    0.1947    0.1900   -0.2617    0.2515
  Py  C    7   -0.0258    0.1353   -0.1041    0.1544
  Pz  C    7    0.0008    0.0028   -0.0036    0.0053
  S   C    8   -0.0529   -0.0156   -0.0043    0.0121
  Px  C    8    0.1493   -0.1878    0.2066    0.2606
  Py  C    8    0.1719   -0.0344    0.1244    0.1122
  Pz  C    8   -0.0046   -0.0150    0.0090    0.0148
  S   C    9   -0.0621   -0.0001    0.0079    0.0020
  Px  C    9    0.0759   -0.1822    0.2094    0.2686
  Py  C    9   -0.0747    0.2710    0.1441    0.1587
  Pz  C    9    0.0074   -0.0010    0.0253    0.0288
  S   C   10   -0.0606   -0.0147    0.0067   -0.0003
  Px  C   10    0.0192   -0.1182   -0.2416    0.2650
  Py  C   10    0.0041    0.3176   -0.1065    0.1554
  Pz  C   10   -0.0034    0.0059   -0.0151    0.0162
  S   C   11   -0.0624   -0.0047   -0.0025   -0.0080
  Px  C   11   -0.0559   -0.1452   -0.2434    0.2659
  Py  C   11   -0.1493   -0.0456   -0.1350    0.1235
  Pz  C   11    0.0067   -0.0029   -0.0043    0.0076
  S   H   12   -0.0438    0.0253   -0.0012   -0.0106
  S   C   13   -0.0687   -0.0173    0.0179    0.0002
  Px  C   13   -0.2087    0.0610    0.2751    0.2768
  Py  C   13    0.0126    0.1093    0.1252    0.1619
  Pz  C   13   -0.0069    0.0051    0.0156    0.0160
  S   H   14   -0.0556    0.0213    0.0202    0.0054
  S   H   15    0.0741    0.0038   -0.0034    0.0357
  S   H   16    0.0198   -0.0195    0.0207    0.0158
  S   H   17    0.0096    0.0248   -0.0250    0.0173
  S   H   18    0.0584    0.0125   -0.0073    0.0313
  S   H   19   -0.0318   -0.0373   -0.0072    0.0132
  S   H   20   -0.0499   -0.0419    0.0097   -0.0068
  S   C   21    0.0156   -0.0141   -0.0196   -0.0285
  Px  C   21   -0.2755   -0.2240   -0.1428    0.1912
  Py  C   21   -0.1173   -0.1606   -0.1366    0.0567
  Pz  C   21   -0.0106   -0.0061   -0.0025    0.0079
  S   C   22    0.0692    0.0212    0.0085   -0.0427
  Px  C   22   -0.1388   -0.0232    0.0000    0.0830
  Py  C   22   -0.1355   -0.2709   -0.2327    0.0702
  Pz  C   22    0.0043    0.0048    0.0027   -0.0018
  S   C   23    0.0565   -0.0016   -0.0155   -0.0389
  Px  C   23   -0.1576    0.1956    0.2223    0.1098
  Py  C   23   -0.0495   -0.1330   -0.1133    0.0269
  Pz  C   23    0.0101   -0.0083   -0.0104   -0.0067
  S   C   24    0.0023    0.0210    0.0219   -0.0222
  Px  C   24   -0.1916    0.1865    0.2158    0.1470
  Py  C   24   -0.1136    0.0571    0.0609    0.1206
  Pz  C   24    0.0059   -0.0098   -0.0107   -0.0025
  S   H   25    0.0183   -0.0150   -0.0286   -0.0201
  S   H   26    0.0781    0.0138   -0.0008   -0.0432
  S   H   27    0.0731    0.0070   -0.0089   -0.0434
  S   H   28    0.0007    0.0209    0.0297   -0.0133
  S   C   29   -0.0177   -0.0095    0.0028   -0.0231
  Px  C   29   -0.2843   -0.2132   -0.1399    0.2299
  Py  C   29   -0.0623   -0.0107   -0.1971    0.1175
  Pz  C   29   -0.0031   -0.0004   -0.0057   -0.0001
  S   C   30   -0.0084   -0.0007   -0.0173   -0.0295
  Px  C   30   -0.2501    0.0406    0.2688    0.2505
  Py  C   30   -0.0766    0.1258    0.0265    0.0953
  Pz  C   30   -0.0019    0.0082    0.0017    0.0067


              NET ATOMIC CHARGES AND DIPOLE CONTRIBUTIONS

  ATOM NO.   TYPE          CHARGE      No. of ELECS.   s-Pop       p-Pop       
    1          C          -0.027752        4.0278     1.09798     2.92977
    2          C          -0.037052        4.0371     1.11906     2.91799
    3          C           0.015952        3.9840     1.06645     2.91760
    4          C           0.010458        3.9895     1.07361     2.91593
    5          C          -0.035751        4.0358     1.11088     2.92487
    6          C          -0.025715        4.0257     1.10639     2.91933
    7          C          -0.030214        4.0302     1.09660     2.93361
    8          C          -0.035558        4.0356     1.10298     2.93258
    9          C           0.014288        3.9857     1.06547     2.92024
   10          C           0.013686        3.9863     1.06396     2.92235
   11          C          -0.040168        4.0402     1.11945     2.92072
   12          H           0.017640        0.9824     0.98236
   13          C          -0.037564        4.0376     1.09561     2.94196
   14          H           0.021932        0.9781     0.97807
   15          H           0.028868        0.9711     0.97113
   16          H           0.027331        0.9727     0.97267
   17          H           0.026674        0.9733     0.97333
   18          H           0.024155        0.9758     0.97585
   19          H           0.026613        0.9734     0.97339
   20          H           0.021404        0.9786     0.97860
   21          C          -0.018818        4.0188     1.08826     2.93055
   22          C          -0.027767        4.0278     1.09547     2.93230
   23          C          -0.027360        4.0274     1.09614     2.93122
   24          C          -0.029936        4.0299     1.09984     2.93009
   25          H           0.025741        0.9743     0.97426
   26          H           0.027131        0.9729     0.97287
   27          H           0.018602        0.9814     0.98140
   28          H           0.033353        0.9666     0.96665
   29          C           0.006409        3.9936     1.07941     2.91418
   30          C           0.013419        3.9866     1.06981     2.91677
 DIPOLE           X         Y         Z       TOTAL
 POINT-CHG.     0.053     0.076    -0.027     0.096
 HYBRID         0.018     0.088    -0.163     0.186
 SUM            0.071     0.164    -0.190     0.261


          ATOMIC ORBITAL ELECTRON POPULATIONS

     Atom    s        px        py        pz   
    1  C   1.09798   0.97386   0.95504   1.00088
    2  C   1.11906   0.96760   0.94255   1.00784
    3  C   1.06645   0.97093   0.96295   0.98372
    4  C   1.07361   0.96077   0.97309   0.98207
    5  C   1.11088   0.96383   0.95504   1.00601
    6  C   1.10639   0.93556   0.98660   0.99716
    7  C   1.09660   0.96648   0.94893   1.01820
    8  C   1.10298   0.96608   0.95586   1.01064
    9  C   1.06547   0.96832   0.97263   0.97928
   10  C   1.06396   0.96282   0.97389   0.98564
   11  C   1.11945   0.95561   0.95272   1.01240
   12  H   0.98236
   13  C   1.09561   0.97523   0.94467   1.02205
   14  H   0.97807
   15  H   0.97113
   16  H   0.97267
   17  H   0.97333
   18  H   0.97585
   19  H   0.97339
   20  H   0.97860
   21  C   1.08826   0.97347   0.95961   0.99747
   22  C   1.09547   0.94272   0.98948   1.00010
   23  C   1.09614   0.97834   0.95449   0.99840
   24  C   1.09984   0.98013   0.94785   1.00211
   25  H   0.97426
   26  H   0.97287
   27  H   0.98140
   28  H   0.96665
   29  C   1.07941   0.96222   0.96916   0.98281
   30  C   1.06981   0.97891   0.96425   0.97361

 **********************
 *                    *
 * JOB ENDED NORMALLY *
 *                    *
 **********************



 TOTAL JOB TIME:             1.50 SECONDS

 == MOPAC DONE ==


          MOPAC Job: "./tetraceneTraj/tetracene_643.mop" ended normally on Feb 15, 2023, at 11:26.

rm: cannot remove ./tetraceneTraj/tetracene_643.cim: No such file or directory
rm: cannot remove ./tetraceneTraj/tetracene_643.end: No such file or directory
rm: cannot remove ./tetraceneTraj/tetracene_643.log: No such file or directory
rm: cannot remove ./tetraceneTraj/tetracene_643.temp: No such file or directory
rm: cannot remove ./tetraceneTraj/tetracene_643.ple: No such file or directory
rm: cannot remove ./tetraceneTraj/tetracene_643.sts: No such file or directory
