 *******************************************************************************
 ** Site#:    0         For non-commercial use only    Version 20.173L 64BITS **
 *******************************************************************************
 ** Cite this program as: MOPAC2016, Version: 20.173L, James J. P. Stewart,   **
 ** Stewart Computational Chemistry, web-site: HTTP://OpenMOPAC.net.          **
 *******************************************************************************
 **                                                                           **
 **                                MOPAC2016                                  **
 **                                                                           **
 *******************************************************************************

                              INDO CALCULATION RESULTS

 *******************************************************************************
 *  CALCULATION DONE:                                Wed Feb 15 11:39:36 2023  *
 *  INDO       - The INDO Hamiltonian to be used
 *
 *
 *
 *                 CHARGE ON SYSTEM = 0
 *
 *
 *
 *  C.I.=(N,M) - 3 DOUBLY FILLED LEVELS USED IN A C.I. INVOLVING 6 M.O.'S
 *  T=         - A TIME OF 172800.0 SECONDS REQUESTED
 *  DUMP=N     - RESTART FILE WRITTEN EVERY 7200.0 SECONDS REQUESTED
 *  RELSCF     - DEFAULT SCF CRITERION MULTIPLIED BY 0.0000
 *              (DEFAULT SCF CRITERION = 0.00010)
 *  ALLVEC     - PRINT ALL EIGENVECTORS
 **********
 *  WARNING: Specified print options may not behave as expected with INDO
 **********
 *******************************************************************************
INDO C.I.=(6,3) AllVEC CHARGE=0 RELSCF=0.000001


   ATOM   CHEMICAL          X               Y               Z
  NUMBER   SYMBOL      (ANGSTROMS)     (ANGSTROMS)     (ANGSTROMS)
 
     1       C         18.48560044  *  19.53437066  *  22.37266950  *
     2       C         19.87631006  *  19.49108863  *  22.43914627  *
     3       C         20.68568637  *  20.70072708  *  22.44470908  *
     4       C         19.94569490  *  21.98995063  *  22.43731490  *
     5       C         18.53433951  *  21.97950318  *  22.40964652  *
     6       C         17.80636371  *  20.81664829  *  22.37555789  *
     7       C         22.07913245  *  20.67004538  *  22.46983181  *
     8       C         20.66633740  *  23.21301232  *  22.51317401  *
     9       C         22.10644587  *  23.15672067  *  22.55015998  *
    10       C         22.82323093  *  21.86151314  *  22.50122669  *
    11       C         24.26022167  *  21.83257925  *  22.61311859  *
    12       H         24.75915941  *  20.84935488  *  22.65762024  *
    13       C         22.95721862  *  24.32858656  *  22.61263612  *
    14       H         22.59756434  *  19.69735023  *  22.44091209  *
    15       H         17.82083877  *  18.60395221  *  22.35707525  *
    16       H         20.39707453  *  18.51737915  *  22.52957952  *
    17       H         18.01156100  *  22.94991581  *  22.39139767  *
    18       H         16.73291084  *  20.79954172  *  22.27502985  *
    19       H         20.07476036  *  24.13379734  *  22.50233943  *
    20       H         22.51977213  *  25.31045235  *  22.82268377  *
    21       C         26.53789232  *  23.01861240  *  22.55980686  *
    22       C         27.24007145  *  24.18132717  *  22.45065389  *
    23       C         26.49529040  *  25.43096112  *  22.51533985  *
    24       C         25.10746257  *  25.52595867  *  22.55095816  *
    25       H         27.06695751  *  22.06554023  *  22.52982463  *
    26       H         28.30448023  *  24.18988583  *  22.22715085  *
    27       H         27.15937800  *  26.32966316  *  22.52760446  *
    28       H         24.52984729  *  26.45746078  *  22.45905087  *
    29       C         25.05564583  *  23.00382272  *  22.61254932  *
    30       C         24.33921380  *  24.27261084  *  22.59499269  *
 


          CARTESIAN COORDINATES 

    NO.       ATOM           X           Y           Z

     1         C         18.4856     19.5344     22.3727
     2         C         19.8763     19.4911     22.4391
     3         C         20.6857     20.7007     22.4447
     4         C         19.9457     21.9900     22.4373
     5         C         18.5343     21.9795     22.4096
     6         C         17.8064     20.8166     22.3756
     7         C         22.0791     20.6700     22.4698
     8         C         20.6663     23.2130     22.5132
     9         C         22.1064     23.1567     22.5502
    10         C         22.8232     21.8615     22.5012
    11         C         24.2602     21.8326     22.6131
    12         H         24.7592     20.8494     22.6576
    13         C         22.9572     24.3286     22.6126
    14         H         22.5976     19.6974     22.4409
    15         H         17.8208     18.6040     22.3571
    16         H         20.3971     18.5174     22.5296
    17         H         18.0116     22.9499     22.3914
    18         H         16.7329     20.7995     22.2750
    19         H         20.0748     24.1338     22.5023
    20         H         22.5198     25.3105     22.8227
    21         C         26.5379     23.0186     22.5598
    22         C         27.2401     24.1813     22.4507
    23         C         26.4953     25.4310     22.5153
    24         C         25.1075     25.5260     22.5510
    25         H         27.0670     22.0655     22.5298
    26         H         28.3045     24.1899     22.2272
    27         H         27.1594     26.3297     22.5276
    28         H         24.5298     26.4575     22.4591
    29         C         25.0556     23.0038     22.6125
    30         C         24.3392     24.2726     22.5950

           Empirical Formula: C18 H12  =    30 atoms



      MOLECULAR POINT GROUP   :   C1  


      RHF CALCULATION, NO. OF DOUBLY OCCUPIED LEVELS = 42

 WARNING: INDO only performs single-point calculations
  SCF CRITERION =    0.1000E-09

 Summary of symmetry occupancy in each shell:

 SHELL     
    1   42
    v   42
 TOTAL  84




    ROOT NO.    1           2           3           4           5           6

           -44.64077   -43.10678   -40.39124   -37.06202   -35.73249   -34.26981
  
  
  S  C   1   0.13478    -0.20774    -0.24854    -0.23139    -0.13105     0.10056
 PX  C   1   0.03553    -0.04793    -0.03863    -0.00362    -0.05330     0.07994
 PY  C   1   0.05159    -0.07687    -0.08454    -0.06818     0.00742    -0.03716
 PZ  C   1   0.00253    -0.00366    -0.00374    -0.00234    -0.00300     0.00373
  
  S  C   2   0.16850    -0.22492    -0.19337    -0.08526    -0.22714     0.26572
 PX  C   2  -0.00551     0.02836     0.07404     0.10975    -0.02163     0.04298
 PY  C   2   0.06833    -0.08464    -0.05662    -0.00203    -0.01976     0.02185
 PZ  C   2  -0.00059     0.00154     0.00297     0.00373    -0.00037     0.00127
  
  S  C   3   0.28991    -0.27467    -0.03447     0.18877    -0.16776     0.22323
 PX  C   3  -0.00116     0.05943     0.14391     0.13949    -0.05960     0.04829
 PY  C   3   0.05510    -0.02367     0.05957     0.08293     0.12384    -0.11451
 PZ  C   3   0.00158     0.00021     0.00365     0.00407    -0.00049     0.00084
  
  S  C   4   0.29140    -0.28653    -0.06369     0.14118     0.23416    -0.16821
 PX  C   4   0.03902     0.01921     0.13363     0.15598    -0.02016     0.08875
 PY  C   4  -0.03149     0.05876     0.07629     0.04934     0.14312    -0.11365
 PZ  C   4   0.00322    -0.00101     0.00465     0.00668     0.00458    -0.00102
  
  S  C   5   0.18048    -0.24515    -0.22291    -0.13356     0.18318    -0.25928
 PX  C   5   0.05546    -0.05692    -0.00809     0.05611     0.05890    -0.02389
 PY  C   5  -0.04223     0.07034     0.09326     0.09187     0.05741    -0.02656
 PZ  C   5   0.00071    -0.00013     0.00179     0.00357     0.00192     0.00008
  
  S  C   6   0.14104    -0.21836    -0.26429    -0.25592     0.00871    -0.11424
 PX  C   6   0.06265    -0.09032    -0.09085    -0.05721    -0.00358    -0.00620
 PY  C   6   0.00536    -0.00473     0.00367     0.01713     0.06733    -0.08586
 PZ  C   6   0.00119    -0.00151    -0.00092     0.00057     0.00039     0.00030
  
  S  C   7   0.24865    -0.11900     0.18128     0.25575    -0.28642     0.16980
 PX  C   7  -0.03607     0.07004     0.03541    -0.07714    -0.02390    -0.09537
 PY  C   7   0.07969    -0.01241     0.09103     0.05966     0.01317    -0.04514
 PZ  C   7   0.00146     0.00135     0.00309    -0.00135    -0.00070    -0.00315
  
  S  C   8   0.23218    -0.12385     0.13845     0.18654     0.35890    -0.15561
 PX  C   8   0.03918     0.02934     0.09061     0.00862    -0.00552     0.07293
 PY  C   8  -0.07657     0.06619    -0.02132    -0.09651    -0.02167     0.03196
 PZ  C   8  -0.00227     0.00343     0.00107    -0.00426    -0.00315     0.00475
  
  S  C   9   0.31150     0.02267     0.29231    -0.01744     0.21411    -0.00548
 PX  C   9   0.02490     0.09052     0.02625    -0.17970    -0.09741     0.03664
 PY  C   9  -0.05416     0.04294    -0.05187    -0.11166     0.09989     0.03701
 PZ  C   9  -0.00197     0.00372    -0.00154    -0.00922     0.00018     0.00263
  
  S  C  10   0.32305     0.02436     0.31590     0.02755    -0.20831    -0.04568
 PX  C  10  -0.03139     0.08492    -0.02823    -0.17744    -0.08588    -0.08361
 PY  C  10   0.03999     0.05180     0.03076    -0.11763     0.12292    -0.03204
 PZ  C  10   0.00627     0.00451     0.00675    -0.00936    -0.00401    -0.00475
  
  S  C  11   0.22657     0.15190     0.15441    -0.18307    -0.29974    -0.24035
 PX  C  11  -0.04793     0.01746    -0.09589     0.00659     0.01893    -0.06001
 PY  C  11   0.06544     0.07512     0.01073    -0.10216     0.00958    -0.04104
 PZ  C  11  -0.00500    -0.00233    -0.00445     0.00173     0.00644     0.00247
  
  S  H  12   0.06905     0.04296     0.04681    -0.03739    -0.14805    -0.11114
  
  S  C  13   0.23079     0.16682     0.13841    -0.27002     0.24783     0.20102
 PX  C  13   0.03479     0.07710    -0.04010    -0.08254    -0.02244     0.07733
 PY  C  13  -0.07264    -0.02444    -0.08396     0.05806     0.01485     0.06657
 PZ  C  13  -0.00170    -0.00012    -0.00167    -0.00139     0.00242     0.00425
  
  S  H  14   0.07589    -0.03481     0.05414     0.07599    -0.15399     0.07924
  
  S  H  15   0.03162    -0.05161    -0.06972    -0.07823    -0.04815     0.03860
  
  S  H  16   0.04961    -0.06335    -0.04860    -0.01210    -0.10785     0.12951
  
  S  H  17   0.05499    -0.07258    -0.06228    -0.03524     0.10347    -0.13315
  
  S  H  18   0.03712    -0.06074    -0.08259    -0.09554     0.00550    -0.05215
  
  S  H  19   0.06994    -0.04028     0.03214     0.04476     0.16959    -0.08449
  
  S  H  20   0.07172     0.05406     0.03536    -0.08566     0.13594     0.11647
  
  S  C  21   0.14027     0.23464    -0.22718     0.16885    -0.14036    -0.28012
 PX  C  21  -0.04230    -0.05364     0.00943     0.05213     0.03163     0.02647
 PY  C  21   0.03612     0.07228    -0.09653     0.09439     0.02525     0.02271
 PZ  C  21  -0.00165    -0.00350     0.00551    -0.00756     0.00090     0.00397
  
  S  C  22   0.11374     0.21522    -0.27037     0.28029    -0.04111    -0.12746
 PX  C  22  -0.05079    -0.08965     0.09394    -0.06341     0.00277     0.00646
 PY  C  22  -0.00416    -0.00478    -0.00191     0.00872     0.04403     0.09415
 PZ  C  22   0.00358     0.00646    -0.00696     0.00463    -0.00070    -0.00159
  
  S  C  23   0.11619     0.21697    -0.26353     0.24142     0.06847     0.12247
 PX  C  23  -0.03038    -0.04905     0.03780     0.00808    -0.04361    -0.09609
 PY  C  23  -0.04180    -0.07540     0.08418    -0.07050     0.01665     0.04706
 PZ  C  23   0.00037     0.00041     0.00037    -0.00213     0.00095     0.00243
  
  S  C  24   0.14595     0.23686    -0.20676     0.06995     0.16770     0.31365
 PX  C  24   0.00119     0.02259    -0.07012     0.11555    -0.03223    -0.04546
 PY  C  24  -0.05952    -0.09024     0.06288    -0.00117    -0.01759    -0.02632
 PZ  C  24  -0.00013    -0.00079     0.00224    -0.00372    -0.00028    -0.00128
  
  S  H  25   0.04191     0.06838    -0.06387     0.05180    -0.07372    -0.14155
  
  S  H  26   0.02960     0.05913    -0.08334     0.10338    -0.01814    -0.05809
  
  S  H  27   0.02898     0.05733    -0.07870     0.08732     0.02599     0.04838
  
  S  H  28   0.04543     0.07010    -0.05336     0.00076     0.08552     0.15583
  
  S  C  29   0.25215     0.30273    -0.07215    -0.13521    -0.17001    -0.22675
 PX  C  29  -0.04973    -0.00517    -0.12466     0.16986    -0.00831    -0.05740
 PY  C  29   0.02998     0.06537    -0.08230     0.03861     0.10170     0.12791
 PZ  C  29  -0.00417    -0.00577     0.00376    -0.00216     0.00280     0.00417
  
  S  C  30   0.26488     0.31642    -0.06747    -0.20667     0.13527     0.21757
 PX  C  30  -0.00721     0.04594    -0.13529     0.14614    -0.05822    -0.05264
 PY  C  30  -0.04968    -0.02878    -0.06046     0.07993     0.10159     0.16372
 PZ  C  30  -0.00108    -0.00211     0.00317    -0.00391     0.00007    -0.00077




    ROOT NO.    7           8           9          10          11          12

           -31.68881   -31.38924   -28.80139   -28.33599   -26.97041   -25.96026
  
  
  S  C   1  -0.19704     0.22961    -0.22519    -0.23146    -0.05875    -0.20677
 PX  C   1  -0.09669    -0.10675    -0.09925     0.16481    -0.05026    -0.05179
 PY  C   1   0.05601     0.04598     0.09030    -0.00717     0.10059     0.05683
 PZ  C   1  -0.00549    -0.00200    -0.00628     0.00465    -0.00279    -0.00439
  
  S  C   2  -0.27370    -0.09790    -0.18207     0.13596    -0.14567     0.02608
 PX  C   2   0.04723    -0.12946     0.14492     0.09516    -0.00732     0.22749
 PY  C   2   0.01693    -0.06911     0.07104     0.07875     0.12267     0.04025
 PZ  C   2   0.00080    -0.00420     0.00300     0.00341    -0.00283     0.00758
  
  S  C   3  -0.05374    -0.24423     0.11860     0.09662     0.14786     0.13497
 PX  C   3   0.06874     0.05357     0.13057    -0.15545    -0.05607     0.11568
 PY  C   3   0.08192     0.01402    -0.01503    -0.09560     0.16708    -0.18667
 PZ  C   3   0.00043     0.00015     0.00046    -0.00242    -0.00084     0.00138
  
  S  C   4   0.09255    -0.23933    -0.08686     0.11143     0.05972    -0.20930
 PX  C   4  -0.11052     0.00476    -0.06124    -0.17534     0.11477     0.00094
 PY  C   4   0.00942     0.02134    -0.11093    -0.07996    -0.20493    -0.02070
 PZ  C   4  -0.00340    -0.00207    -0.00668    -0.00522    -0.00135    -0.00280
  
  S  C   5   0.27377    -0.00783     0.18209     0.14882    -0.07821     0.09329
 PX  C   5  -0.01642    -0.15857    -0.12419     0.13117    -0.00532    -0.21310
 PY  C   5   0.00455    -0.08706    -0.06505     0.04212    -0.13561    -0.03828
 PZ  C   5  -0.00212    -0.00624    -0.00640     0.00413    -0.00202    -0.00811
  
  S  C   6   0.12462     0.30249     0.18087    -0.24039     0.06912     0.17571
 PX  C   6  -0.00355    -0.03137    -0.02688     0.09918     0.03085    -0.08839
 PY  C   6   0.13458    -0.06388     0.14915     0.14059    -0.01589     0.15234
 PZ  C   6  -0.00068    -0.00559    -0.00269     0.00900    -0.00055    -0.00528
  
  S  C   7   0.18067     0.03685     0.22800    -0.10556    -0.14718     0.07101
 PX  C   7   0.10824     0.15136    -0.06258     0.00451    -0.15882    -0.17075
 PY  C   7   0.05103     0.09858    -0.03158    -0.08640     0.12807    -0.17589
 PZ  C   7   0.00265     0.00556    -0.00406     0.00071    -0.00123    -0.00720
  
  S  C   8  -0.15243    -0.02527    -0.22787    -0.13831    -0.20209     0.06354
 PX  C   8  -0.14042     0.14225     0.03136    -0.09390     0.10950     0.15058
 PY  C   8  -0.06015     0.06464     0.02774     0.03542    -0.14279     0.15668
 PZ  C   8  -0.00577     0.00648     0.00378    -0.00007    -0.00049     0.00967
  
  S  C   9  -0.26763     0.23471    -0.02777    -0.01588     0.10302     0.16643
 PX  C   9   0.04406     0.03685     0.10236     0.19159     0.10321    -0.06853
 PY  C   9  -0.12307    -0.03028     0.05743     0.08711    -0.17988     0.17182
 PZ  C   9  -0.00293    -0.00003     0.00585     0.00982    -0.00842     0.00544
  
  S  C  10   0.17346     0.26464    -0.02090     0.02095     0.03525    -0.20077
 PX  C  10   0.06587    -0.02303    -0.10376     0.18061    -0.13236    -0.02064
 PY  C  10  -0.16064     0.01185    -0.06461     0.08631     0.22187     0.06572
 PZ  C  10   0.00186     0.00597    -0.00705     0.01152     0.00011    -0.00345
  
  S  C  11   0.15718    -0.01863    -0.22838     0.12067    -0.17450     0.03213
 PX  C  11  -0.08845    -0.17302    -0.03444    -0.10095    -0.01720     0.18938
 PY  C  11  -0.06738    -0.08548    -0.03088     0.02829     0.19702     0.07480
 PZ  C  11  -0.00567    -0.00610     0.00076    -0.00380     0.00193     0.00832
  
  S  H  12   0.08682    -0.01099    -0.09930     0.01747    -0.20669     0.02999
  
  S  C  13  -0.18002     0.03061     0.24741     0.12916    -0.15565     0.02149
 PX  C  13   0.13046    -0.12671     0.06236    -0.00796     0.05993    -0.21608
 PY  C  13   0.08173    -0.07169     0.05210    -0.08757    -0.17510    -0.08915
 PZ  C  13  -0.00013    -0.00307     0.00816     0.00010    -0.01515    -0.00155
  
  S  H  14   0.08992     0.00772     0.10585    -0.00544    -0.19682     0.08455
  
  S  H  15  -0.08760     0.12176    -0.11742    -0.16306    -0.05900    -0.11161
  
  S  H  16  -0.12597    -0.04764    -0.08258     0.05365    -0.14499     0.06020
  
  S  H  17   0.13748    -0.00540     0.08677     0.05868    -0.11723     0.09067
  
  S  H  18   0.06288     0.16817     0.10571    -0.18054     0.01765     0.14282
  
  S  H  19  -0.05717    -0.02424    -0.10438    -0.02106    -0.21700     0.06689
  
  S  H  20  -0.07274     0.00717     0.13164     0.01851    -0.19877     0.01556
  
  S  C  21  -0.25433    -0.08307     0.19998    -0.15611    -0.12587    -0.04287
 PX  C  21  -0.05696     0.14133     0.13207     0.14012    -0.07765    -0.17714
 PY  C  21  -0.02214     0.08178     0.05025     0.05229     0.07982    -0.08645
 PZ  C  21   0.00880    -0.00915    -0.01296    -0.00911     0.00478     0.01580
  
  S  C  22  -0.19455     0.23674     0.17704     0.24312    -0.02375    -0.16257
 PX  C  22  -0.01037     0.02276     0.03382     0.09112    -0.05235    -0.05602
 PY  C  22   0.11246     0.09341    -0.16232     0.14099     0.08968     0.12193
 PZ  C  22  -0.00015    -0.00460    -0.00194    -0.01318     0.00422     0.00680
  
  S  C  23   0.13946     0.26526    -0.24296     0.23050     0.06538     0.19570
 PX  C  23  -0.12172     0.07548     0.09071     0.17522     0.01650    -0.04355
 PY  C  23   0.06988    -0.01262    -0.08964     0.00631    -0.04453     0.09135
 PZ  C  23   0.00383    -0.00586    -0.00319    -0.01012     0.00042     0.00383
  
  S  C  24   0.28848     0.00313    -0.16119    -0.12812    -0.10916     0.01448
 PX  C  24   0.02104     0.11901    -0.16807     0.08501     0.10744     0.18586
 PY  C  24  -0.00417     0.06925    -0.05806     0.08264    -0.06720     0.08142
 PZ  C  24  -0.00342    -0.00573     0.00711    -0.00409     0.00102    -0.00490
  
  S  H  25  -0.12736    -0.04266     0.10873    -0.06516    -0.13301    -0.02747
  
  S  H  26  -0.10100     0.13009     0.10743     0.17629    -0.04227    -0.11710
  
  S  H  27   0.05874     0.14648    -0.12957     0.17613     0.01757     0.12646
  
  S  H  28   0.13058     0.00024    -0.05261    -0.04861    -0.13053    -0.00969
  
  S  C  29  -0.03670    -0.28248    -0.10942    -0.14330     0.12549     0.17061
 PX  C  29  -0.08220    -0.01721     0.07010    -0.16894    -0.10003     0.04224
 PY  C  29   0.00903    -0.01104     0.09461    -0.07115     0.14606    -0.10648
 PZ  C  29   0.00209     0.00032    -0.00140     0.00232    -0.00148     0.00250
  
  S  C  30   0.09286    -0.20405     0.11537    -0.09791     0.06688    -0.16479
 PX  C  30   0.07938    -0.04449    -0.14472    -0.16475     0.09084     0.06791
 PY  C  30   0.09384     0.03582     0.04657    -0.08084    -0.20378    -0.10164
 PZ  C  30  -0.00321    -0.00237     0.00456     0.00263    -0.00227     0.00050




    ROOT NO.   13          14          15          16          17          18

           -25.28273   -24.08893   -22.67103   -21.44466   -20.70093   -19.36621
  
  
  S  C   1   0.05138     0.11396    -0.00015     0.18534    -0.04494     0.02239
 PX  C   1   0.01667    -0.23392    -0.00123    -0.03125     0.22502     0.17014
 PY  C   1  -0.14561     0.01426     0.18224    -0.12621    -0.12247     0.16821
 PZ  C   1   0.00139    -0.00961    -0.00029     0.00020     0.01071     0.00869
  
  S  C   2   0.14201    -0.17858    -0.11966    -0.12231     0.12971    -0.01177
 PX  C   2   0.04070     0.04163    -0.06495    -0.16869    -0.13072    -0.17457
 PY  C   2  -0.18279     0.02097     0.19463    -0.08673    -0.16195     0.07493
 PZ  C   2   0.00560    -0.00120    -0.00875    -0.00805     0.00210    -0.01210
  
  S  C   3  -0.12727     0.11773     0.00233    -0.08861    -0.07141    -0.13895
 PX  C   3   0.15176     0.12977    -0.14110     0.13176    -0.00292     0.02242
 PY  C   3  -0.15689     0.08868     0.01701     0.12337     0.13116    -0.05710
 PZ  C   3   0.00312     0.00129    -0.00591    -0.00288     0.00378    -0.00693
  
  S  C   4  -0.08038     0.10357     0.01392     0.09685    -0.06260    -0.15627
 PX  C   4  -0.07581     0.16503    -0.06824    -0.16099     0.10949    -0.07879
 PY  C   4   0.24069     0.06780    -0.13218    -0.00017    -0.06410     0.01097
 PZ  C   4   0.00176     0.00687    -0.00345    -0.00718     0.00218    -0.00439
  
  S  C   5   0.11988    -0.18834    -0.10109     0.10971     0.12351     0.02923
 PX  C   5  -0.06338     0.02612     0.13145     0.16463    -0.20635    -0.02811
 PY  C   5   0.17833     0.01969    -0.16325     0.11411    -0.02711    -0.17129
 PZ  C   5  -0.00019     0.00107     0.00313     0.00527    -0.00551     0.00008
  
  S  C   6  -0.02379     0.12630    -0.00341    -0.15941    -0.03711    -0.00946
 PX  C   6  -0.09436    -0.13378     0.16195     0.09745     0.02004     0.27541
 PY  C   6   0.04977    -0.20070    -0.09962    -0.07443     0.25771     0.04870
 PZ  C   6  -0.00246    -0.01151     0.00593     0.00701     0.00721     0.01738
  
  S  C   7   0.13423     0.07709     0.08003     0.20133    -0.06643     0.16930
 PX  C   7   0.03171    -0.14562     0.17919     0.04520     0.02144     0.13338
 PY  C   7  -0.08903    -0.07991    -0.05225     0.02392     0.21607    -0.02097
 PZ  C   7  -0.00180    -0.00643     0.00094    -0.00585     0.00681    -0.00838
  
  S  C   8   0.11425     0.10395     0.07470    -0.20782    -0.05884     0.14864
 PX  C   8  -0.13480    -0.13314     0.06701    -0.08317     0.19710     0.08753
 PY  C   8   0.04332    -0.07378     0.16177    -0.05718    -0.10625     0.15897
 PZ  C   8  -0.00611    -0.00712     0.01019    -0.00289     0.00628     0.00258
  
  S  C   9  -0.04846    -0.22851    -0.01127    -0.01339     0.00526     0.01005
 PX  C   9   0.03021    -0.06785    -0.11242     0.18506    -0.18473    -0.15767
 PY  C   9  -0.02269     0.05671     0.22681     0.08021    -0.10213    -0.04881
 PZ  C   9  -0.00320     0.00241     0.01274     0.01071    -0.00339    -0.01691
  
  S  C  10   0.02322    -0.22328    -0.03670    -0.01343    -0.00020    -0.01508
 PX  C  10   0.00203     0.04014     0.10504    -0.17802    -0.17575    -0.14247
 PY  C  10  -0.01288    -0.07488    -0.21731    -0.07891    -0.09215    -0.09025
 PZ  C  10  -0.00199    -0.00461    -0.00050    -0.01406    -0.00608    -0.02088
  
  S  C  11  -0.15882     0.12219     0.04991    -0.19909     0.06357    -0.15095
 PX  C  11  -0.12096     0.16526    -0.05396     0.08455     0.19151     0.07506
 PY  C  11   0.07720     0.06391    -0.17433     0.05499    -0.09847     0.15405
 PZ  C  11  -0.00472     0.00961    -0.00230     0.00269     0.01458    -0.00292
  
  S  H  12  -0.15819     0.07406     0.11279    -0.10123     0.14737    -0.14874
  
  S  C  13  -0.10102     0.08910     0.09427     0.21617     0.04795    -0.15042
 PX  C  13   0.08104     0.15791    -0.16795    -0.07373     0.03712     0.12815
 PY  C  13  -0.09884     0.10532     0.05687    -0.01333     0.21945    -0.03222
 PZ  C  13  -0.00954     0.01224     0.01413     0.01489     0.02342    -0.01897
  
  S  H  14   0.12718     0.04076     0.12581     0.09573    -0.15252     0.14096
  
  S  H  15   0.09131     0.13689    -0.09747     0.17732    -0.04642    -0.16686
  
  S  H  16   0.18774    -0.08999    -0.19189    -0.06064     0.11990    -0.10926
  
  S  H  17   0.18264    -0.09121    -0.18614     0.06576     0.11045    -0.07948
  
  S  H  18   0.04514     0.15490    -0.10856    -0.15098    -0.03878    -0.21376
  
  S  H  19   0.13194     0.05650     0.09968    -0.10362    -0.16054     0.14051
  
  S  H  20  -0.13538     0.06599     0.12279     0.11722     0.14925    -0.13522
  
  S  C  21  -0.15775    -0.17283    -0.10404     0.11985    -0.10986    -0.02211
 PX  C  21  -0.04923     0.00726    -0.14682    -0.17121    -0.18940     0.01343
 PY  C  21   0.18480    -0.03435     0.16899    -0.12802    -0.01151    -0.16613
 PZ  C  21   0.00056     0.00058     0.01007     0.02100     0.01662    -0.00442
  
  S  C  22   0.06183     0.14151     0.00188    -0.16602     0.04882     0.00442
 PX  C  22  -0.07365     0.14931    -0.16952    -0.10260     0.01031     0.25950
 PY  C  22   0.07944     0.18483     0.10869     0.08000     0.23281     0.02120
 PZ  C  22   0.00564    -0.02227     0.01946     0.02157    -0.00561    -0.04097
  
  S  C  23  -0.02950     0.10165     0.00595     0.17899     0.02757    -0.02475
 PX  C  23   0.06213     0.24660     0.01874     0.04306     0.22179     0.12354
 PY  C  23  -0.15849     0.01766    -0.19793     0.12428    -0.11395     0.18599
 PZ  C  23  -0.00110    -0.01239     0.00330     0.00838    -0.00844    -0.01130
  
  S  C  24  -0.19330    -0.15865    -0.14393    -0.12368    -0.12306     0.01384
 PX  C  24   0.03497    -0.07002     0.05497     0.15868    -0.14481    -0.12111
 PY  C  24  -0.18646     0.01756    -0.20292     0.08024    -0.13041     0.09336
 PZ  C  24   0.00830     0.00324     0.01223     0.00264     0.01261    -0.00650
  
  S  H  25  -0.20057    -0.06622    -0.19769     0.07760    -0.11228     0.09555
  
  S  H  26  -0.01243     0.17177    -0.11152    -0.16020     0.03633     0.20010
  
  S  H  27  -0.06980     0.15567    -0.09572     0.17801     0.04406     0.15780
  
  S  H  28  -0.21407    -0.04726    -0.20326    -0.06879    -0.08375     0.10340
  
  S  C  29   0.07039     0.08630     0.01398     0.10173     0.07449     0.14795
 PX  C  29  -0.10342    -0.16517     0.08631     0.17118     0.10215    -0.10307
 PY  C  29   0.26317    -0.10880     0.13670    -0.01231    -0.08449     0.03925
 PZ  C  29  -0.00263     0.00875     0.00017     0.00300     0.01007    -0.00042
  
  S  C  30   0.17546     0.09850     0.01905    -0.09335     0.05466     0.13266
 PX  C  30   0.10957    -0.16228     0.13327    -0.11948    -0.01099     0.01113
 PY  C  30  -0.17996    -0.06007    -0.00825    -0.10988     0.12906    -0.10320
 PZ  C  30   0.00009     0.01096     0.00518     0.01176     0.01163    -0.00356




    ROOT NO.   19          20          21          22          23          24

           -18.36164   -17.23016   -16.91181   -16.66625   -16.04954   -15.32113
  
  
  S  C   1  -0.15964    -0.01320     0.06777    -0.11109    -0.02694     0.05557
 PX  C   1   0.08721     0.14939     0.08250     0.03548    -0.15677     0.08343
 PY  C   1   0.15459    -0.17184    -0.06534     0.03160    -0.18596    -0.11156
 PZ  C   1   0.00409     0.00616    -0.00227     0.00631    -0.01591    -0.02568
  
  S  C   2   0.15457    -0.00936    -0.02029     0.06982     0.00104    -0.03107
 PX  C   2   0.09000    -0.16196    -0.12824     0.04790     0.15966    -0.11458
 PY  C   2   0.00239    -0.14636     0.15063    -0.18215     0.08079     0.18712
 PZ  C   2   0.01061    -0.00242    -0.01861     0.01795     0.00082    -0.04914
  
  S  C   3  -0.04373     0.00423     0.18565    -0.12356     0.10199     0.05964
 PX  C   3  -0.16696    -0.02899     0.05513    -0.08127    -0.22506    -0.13703
 PY  C   3  -0.06750     0.26925     0.02479     0.08443     0.01112     0.01316
 PZ  C   3   0.00475    -0.00048    -0.00438     0.00644    -0.00733    -0.05221
  
  S  C   4   0.02322     0.08571    -0.16408     0.15502     0.04705    -0.00793
 PX  C   4   0.12149     0.20731     0.09284     0.00195    -0.07949     0.16483
 PY  C   4   0.09311    -0.12644    -0.11904     0.03186    -0.21141    -0.04051
 PZ  C   4   0.01097     0.00494    -0.00226     0.00840    -0.01477    -0.03973
  
  S  C   5  -0.15640    -0.00613     0.00554    -0.07252     0.01759    -0.00399
 PX  C   5  -0.03096    -0.16180    -0.18713     0.11526     0.08948    -0.17111
 PY  C   5  -0.09597    -0.09612     0.11463    -0.12665     0.17257     0.11734
 PZ  C   5  -0.00026    -0.00478    -0.00467     0.00382    -0.00742    -0.03181
  
  S  C   6   0.14949     0.00046    -0.06225     0.09263    -0.07549    -0.06573
 PX  C   6  -0.13924    -0.05965     0.00051    -0.11685    -0.22465    -0.06853
 PY  C   6   0.00260     0.22498     0.04687     0.02696    -0.03995     0.06438
 PZ  C   6  -0.01067     0.00117     0.00070    -0.00718    -0.02224    -0.02441
  
  S  C   7  -0.08523     0.04205    -0.02146     0.03754    -0.07632    -0.01341
 PX  C   7   0.15238     0.07210    -0.15819     0.17169     0.14442     0.09607
 PY  C   7   0.10903    -0.01678     0.29029    -0.01902     0.08628    -0.20267
 PZ  C   7   0.00995     0.00056     0.00358     0.00252     0.00260    -0.04680
  
  S  C   8   0.11193     0.02197     0.05009    -0.03726    -0.07085     0.04075
 PX  C   8  -0.16936     0.10702    -0.15653    -0.02859     0.13169     0.08589
 PY  C   8  -0.02582    -0.08038     0.28954    -0.12702     0.12612    -0.07439
 PZ  C   8  -0.00613     0.00672     0.00838     0.00460     0.00664    -0.04283
  
  S  C   9  -0.14395    -0.08288    -0.20430    -0.05166     0.06272     0.05177
 PX  C   9   0.02759    -0.13903     0.03467     0.01732    -0.06138    -0.06452
 PY  C   9  -0.09956     0.23478     0.00452     0.05160     0.12408     0.03964
 PZ  C   9  -0.00073     0.01659     0.01853     0.01926     0.00094    -0.06623
  
  S  C  10   0.15101    -0.16205     0.12921     0.03662     0.08067    -0.06566
 PX  C  10   0.03783     0.11647     0.05778     0.01186     0.07085     0.12932
 PY  C  10  -0.06923    -0.20920    -0.12581    -0.08836    -0.12775     0.04977
 PZ  C  10   0.00301     0.00281     0.00491    -0.00254    -0.00520    -0.04772
  
  S  C  11  -0.10833     0.03858     0.01277    -0.07114    -0.08281    -0.00919
 PX  C  11  -0.17908    -0.03748    -0.12322    -0.05832    -0.15119    -0.09481
 PY  C  11  -0.04351    -0.05325     0.16801     0.20129    -0.09183    -0.08974
 PZ  C  11  -0.01202     0.00600    -0.00975    -0.01317    -0.02059    -0.04511
  
  S  H  12  -0.08552     0.05440    -0.18065    -0.21474    -0.03510     0.03352
  
  S  C  13   0.06696     0.06624     0.03597     0.04583    -0.07075    -0.04029
 PX  C  13   0.18234    -0.01129    -0.07824    -0.18664    -0.16533     0.15574
 PY  C  13   0.09192    -0.07206     0.17260     0.11721    -0.03636    -0.13639
 PZ  C  13   0.01488     0.00949     0.04496     0.03758    -0.01011    -0.08868
  
  S  H  14  -0.06189     0.06756    -0.30274     0.10044    -0.05244     0.18620
  
  S  H  15  -0.21903     0.03769     0.03906    -0.09516     0.19945     0.07001
  
  S  H  16   0.10845     0.03908    -0.18579     0.19495    -0.00020    -0.20877
  
  S  H  17  -0.12838    -0.01603     0.17687    -0.18336     0.10183     0.16007
  
  S  H  18   0.18725     0.04570    -0.03287     0.14571     0.15741     0.02721
  
  S  H  19   0.10627    -0.09326     0.31319    -0.10296    -0.00501    -0.07357
  
  S  H  20   0.03810    -0.02270     0.19540     0.19423    -0.01256    -0.18691
  
  S  C  21   0.16846     0.00255     0.00617    -0.04501    -0.00392     0.08665
 PX  C  21  -0.03806     0.25636    -0.00126    -0.16297    -0.11999    -0.09017
 PY  C  21  -0.15202     0.02303     0.12007     0.20092    -0.21332     0.17113
 PZ  C  21   0.02226    -0.01661    -0.00143    -0.00730    -0.00323    -0.00233
  
  S  C  22  -0.16702    -0.04355     0.02247     0.09490    -0.05725     0.00924
 PX  C  22  -0.13764     0.04156    -0.04619     0.05335     0.27576    -0.22995
 PY  C  22   0.04171    -0.22919    -0.07766    -0.05022     0.08722    -0.01651
 PZ  C  22   0.04220     0.00320     0.01078    -0.02380    -0.06077     0.04564
  
  S  C  23   0.16184     0.04330    -0.01461    -0.11173    -0.04910    -0.02358
 PX  C  23   0.12395    -0.21592    -0.03371     0.01045     0.12355     0.25377
 PY  C  23   0.14405     0.17591     0.01528    -0.01129     0.15116     0.00598
 PZ  C  23   0.01884     0.01976     0.00571    -0.01661    -0.01645    -0.01504
  
  S  C  24  -0.16347    -0.02987    -0.00701     0.05430     0.00668    -0.03008
 PX  C  24   0.06300     0.26803     0.03433    -0.08029    -0.13867    -0.23389
 PY  C  24  -0.03734     0.01648     0.13365     0.30051    -0.08334     0.24751
 PZ  C  24   0.01773     0.00899     0.00070    -0.02266    -0.00011    -0.04575
  
  S  H  25   0.17247     0.08731    -0.09099    -0.24552     0.10630    -0.12809
  
  S  H  26  -0.20016     0.00786    -0.02889     0.09678     0.21481    -0.20303
  
  S  H  27   0.22964     0.03482    -0.01435    -0.05907     0.15001     0.11829
  
  S  H  28  -0.13568    -0.12218     0.08626     0.28976    -0.00079     0.27340
  
  S  C  29  -0.04749    -0.03340     0.08172     0.20928     0.07510    -0.01779
 PX  C  29   0.13813    -0.23150    -0.04050     0.03485     0.09218     0.12522
 PY  C  29   0.09363     0.16388    -0.01288    -0.01320     0.20822     0.05924
 PZ  C  29   0.00200     0.00901     0.00341    -0.00605    -0.01482    -0.04791
  
  S  C  30   0.07006     0.08134    -0.10214    -0.18033     0.09408     0.00305
 PX  C  30  -0.16638    -0.00411     0.00620     0.06379     0.23963    -0.14971
 PY  C  30  -0.03036    -0.23313    -0.10221    -0.15553    -0.01666    -0.04916
 PZ  C  30   0.01691     0.01742     0.02112     0.00848    -0.01186    -0.06478




    ROOT NO.   25          26          27          28          29          30

           -14.96651   -14.88696   -14.61692   -14.39894   -13.75044   -13.52960
  
  
  S  C   1  -0.03198     0.04567     0.02140     0.00079    -0.05380    -0.01438
 PX  C   1   0.23615     0.15065     0.04617     0.17047    -0.01235    -0.09657
 PY  C   1   0.05029     0.20246    -0.10411    -0.12077    -0.11104    -0.00908
 PZ  C   1  -0.05391     0.00603    -0.07106     0.10841    -0.07027     0.20892
  
  S  C   2   0.05985     0.07624    -0.03964    -0.02916     0.03610     0.01423
 PX  C   2  -0.18843    -0.11804    -0.06312    -0.19551     0.05476     0.08656
 PY  C   2   0.01224     0.27776     0.02470     0.01478     0.06837     0.05604
 PZ  C   2  -0.08881    -0.01044    -0.09937     0.11853    -0.06507     0.23237
  
  S  C   3  -0.00435    -0.03042     0.00126     0.02245    -0.03298    -0.00440
 PX  C   3  -0.01215    -0.11226    -0.03685    -0.02413    -0.21030    -0.13469
 PY  C   3   0.07708    -0.17982     0.04656     0.13155    -0.00825    -0.02988
 PZ  C   3  -0.13076     0.02807    -0.15114     0.21274    -0.07742     0.26871
  
  S  C   4   0.03341    -0.02846     0.03678     0.04348    -0.00035    -0.02488
 PX  C   4   0.04995     0.09799     0.09100     0.10160    -0.18722    -0.01510
 PY  C   4  -0.00724     0.19108    -0.01026    -0.06850    -0.19492    -0.06184
 PZ  C   4  -0.12756     0.04560    -0.13542     0.22058    -0.08863     0.27550
  
  S  C   5  -0.09568    -0.02904    -0.00417    -0.06052     0.00864     0.01784
 PX  C   5   0.01282    -0.08288    -0.07364    -0.07374     0.18517    -0.01142
 PY  C   5   0.06539     0.33934    -0.05717    -0.06725     0.07897     0.06255
 PZ  C   5  -0.08297     0.01677    -0.09319     0.14346    -0.07450     0.24446
  
  S  C   6   0.03310    -0.03199    -0.01614     0.01007    -0.04957    -0.01849
 PX  C   6  -0.19676    -0.10939     0.00105    -0.11778    -0.21909    -0.01632
 PY  C   6  -0.00871    -0.22139     0.11350     0.14849    -0.01781    -0.04731
 PZ  C   6  -0.07784    -0.00313    -0.06873     0.10569    -0.08834     0.21993
  
  S  C   7   0.05677     0.00737     0.01251     0.04610     0.04587     0.00503
 PX  C   7   0.05251     0.12011     0.03235     0.02039     0.23863     0.13267
 PY  C   7   0.10880    -0.06587    -0.21018    -0.14449     0.06906     0.06477
 PZ  C   7  -0.12221     0.03931    -0.14758     0.19472    -0.02848     0.13426
  
  S  C   8  -0.04389    -0.03793     0.02437     0.00498    -0.01005     0.02009
 PX  C   8  -0.22358     0.04477     0.04014    -0.16482     0.15879     0.08799
 PY  C   8   0.07289    -0.27824    -0.05478     0.05143     0.20312     0.01742
 PZ  C   8  -0.12661     0.04127    -0.11593     0.18421    -0.01697     0.13481
  
  S  C   9   0.00438     0.02210    -0.03638     0.00994     0.03500    -0.01930
 PX  C   9   0.26325    -0.05374    -0.05898     0.17715    -0.13487    -0.10951
 PY  C   9   0.12587    -0.06563    -0.04476     0.04650    -0.08845     0.00251
 PZ  C   9  -0.15102     0.07489    -0.14191     0.22912     0.01127    -0.01157
  
  S  C  10  -0.02599    -0.00783     0.04517    -0.02415    -0.00098     0.00687
 PX  C  10  -0.17619    -0.05141     0.20646     0.04573    -0.23808    -0.05799
 PY  C  10  -0.05826     0.00949     0.10178     0.07461    -0.08782    -0.10958
 PZ  C  10  -0.16347     0.06160    -0.15640     0.23790     0.00449    -0.01295
  
  S  C  11  -0.05489    -0.01745     0.01360    -0.02726    -0.02102    -0.02411
 PX  C  11   0.18810     0.03772    -0.16654    -0.05509     0.23591     0.06303
 PY  C  11  -0.10993     0.03658     0.31632     0.07285     0.18780     0.09015
 PZ  C  11  -0.10003     0.05599    -0.15424     0.16292     0.09063    -0.13614
  
  S  H  12   0.13331    -0.01889    -0.31275    -0.07792    -0.06175    -0.06627
  
  S  C  13   0.07375     0.04170    -0.01655    -0.02076    -0.04222     0.03203
 PX  C  13  -0.01898    -0.07814    -0.08251    -0.04585     0.17757     0.12792
 PY  C  13  -0.23916     0.13733     0.17596    -0.16024     0.02258     0.01988
 PZ  C  13  -0.16638     0.10306    -0.08039     0.14045     0.06694    -0.15193
  
  S  H  14  -0.03036     0.09899     0.17651     0.13536     0.07015     0.00307
  
  S  H  15  -0.17458    -0.20529     0.06739     0.00213     0.07370     0.05183
  
  S  H  16  -0.06873    -0.23132    -0.06850    -0.09884    -0.01366     0.01828
  
  S  H  17   0.00659     0.28443    -0.01798    -0.05072    -0.00539     0.06404
  
  S  H  18   0.19849     0.07963    -0.00449     0.10381     0.19253    -0.01118
  
  S  H  19   0.13447    -0.23450    -0.04756     0.11246     0.07858    -0.01687
  
  S  H  20  -0.17445     0.16551     0.14931    -0.09150    -0.05888    -0.04758
  
  S  C  21  -0.05691    -0.04165     0.00738     0.00397    -0.02649    -0.01389
 PX  C  21  -0.11381     0.01717     0.04826    -0.06473     0.17469     0.00337
 PY  C  21  -0.06134    -0.00658    -0.20721    -0.16415     0.05783    -0.01653
 PZ  C  21  -0.08208     0.02288    -0.07049     0.10610     0.10908    -0.22104
  
  S  C  22   0.03779     0.00350    -0.02471     0.01096     0.04869     0.01310
 PX  C  22   0.12099     0.12595    -0.02734     0.03743    -0.14200    -0.07257
 PY  C  22   0.08281    -0.05530     0.17259     0.20307    -0.01008     0.03060
 PZ  C  22  -0.11084    -0.00570    -0.05680     0.05751     0.14142    -0.20222
  
  S  C  23  -0.03210    -0.00026     0.04974    -0.01186     0.04594     0.03528
 PX  C  23  -0.12345    -0.13726    -0.02069     0.03370    -0.04414    -0.09278
 PY  C  23  -0.09625     0.05218    -0.15821    -0.17575    -0.11638    -0.08474
 PZ  C  23  -0.08670     0.03037    -0.05802     0.05428     0.10550    -0.21051
  
  S  C  24   0.06408    -0.00278     0.02407     0.07489     0.00353    -0.01582
 PX  C  24   0.07380     0.13711     0.00680    -0.07663     0.06143     0.10307
 PY  C  24  -0.00815    -0.04426    -0.18871    -0.05531     0.02929     0.03350
 PZ  C  24  -0.09972     0.04982    -0.05746     0.08512     0.10316    -0.22862
  
  S  H  25  -0.02242    -0.00996     0.18553     0.10302     0.01178     0.01126
  
  S  H  26   0.14787     0.11384    -0.02697     0.02974    -0.13663    -0.02317
  
  S  H  27  -0.15139    -0.03089    -0.10367    -0.11959    -0.09774    -0.10589
  
  S  H  28  -0.00646    -0.09566    -0.12315     0.02196    -0.01683    -0.01515
  
  S  C  29  -0.00583     0.05292    -0.01239    -0.02387     0.00689     0.00554
 PX  C  29   0.08650    -0.04880    -0.06692     0.06932    -0.18483    -0.03415
 PY  C  29  -0.03706     0.01014    -0.18554    -0.08180    -0.21335    -0.10258
 PZ  C  29  -0.12801     0.06569    -0.13310     0.16425     0.14690    -0.26346
  
  S  C  30  -0.01365    -0.02471    -0.06346    -0.03632     0.00834    -0.00691
 PX  C  30  -0.04701     0.06347     0.07551     0.03478    -0.15767    -0.15637
 PY  C  30   0.02407    -0.04706     0.16561     0.12831     0.02735    -0.02176
 PZ  C  30  -0.15541     0.08771    -0.11693     0.15096     0.13591    -0.27108




    ROOT NO.   31          32          33          34          35          36

           -13.12345   -12.77859   -12.08177   -11.82379   -11.75664   -11.36298
  
  
  S  C   1  -0.00151    -0.01138     0.00580     0.01095     0.00416    -0.00668
 PX  C   1  -0.09723     0.21316    -0.07860     0.07845    -0.08195    -0.10137
 PY  C   1  -0.23658    -0.09712     0.20034     0.06093     0.11927    -0.05401
 PZ  C   1  -0.03157     0.07248     0.11551    -0.22343    -0.12208    -0.13789
  
  S  C   2  -0.02559    -0.00836    -0.02919    -0.01365    -0.02850     0.03839
 PX  C   2   0.10437    -0.21143     0.02889    -0.07771     0.06083     0.13793
 PY  C   2   0.15576     0.02878    -0.20295    -0.09293    -0.14273     0.11395
 PZ  C   2  -0.03107     0.05165     0.10372    -0.15151    -0.06932    -0.08223
  
  S  C   3   0.01731    -0.01461     0.00723     0.00675    -0.00595    -0.01652
 PX  C   3  -0.17340     0.11226    -0.07910     0.13350    -0.14396    -0.14158
 PY  C   3  -0.09584     0.01088     0.26411     0.06173     0.22193    -0.13154
 PZ  C   3  -0.02897     0.07567     0.01599    -0.00810    -0.02373     0.01017
  
  S  C   4  -0.02052     0.02047     0.01466    -0.00427     0.00523     0.01664
 PX  C   4   0.08258    -0.18870     0.15012    -0.11742     0.15744     0.15196
 PY  C   4   0.01390    -0.03346    -0.21896    -0.06395    -0.20855     0.16441
 PZ  C   4  -0.01467     0.08404     0.01108    -0.06284    -0.05073    -0.00407
  
  S  C   5  -0.00066    -0.01219    -0.02347     0.02233    -0.03123    -0.02337
 PX  C   5  -0.10743     0.19412    -0.11999     0.11500    -0.12544    -0.14321
 PY  C   5  -0.18352    -0.03211     0.17230     0.06190     0.09927    -0.08687
 PZ  C   5  -0.01934     0.08718     0.07177    -0.19651    -0.12258    -0.10093
  
  S  C   6  -0.01903    -0.00482     0.00945    -0.01468    -0.00001     0.01274
 PX  C   6   0.05741    -0.22692     0.08225    -0.04698     0.09526     0.11257
 PY  C   6   0.23132     0.06860    -0.19936    -0.07257    -0.10902     0.09418
 PZ  C   6  -0.00989     0.05865     0.10929    -0.25649    -0.13593    -0.12745
  
  S  C   7  -0.05646     0.03379    -0.00899     0.01828    -0.04047     0.03209
 PX  C   7   0.12276    -0.10911     0.07147    -0.12646     0.11664     0.16521
 PY  C   7  -0.13033    -0.11920    -0.07985    -0.01663    -0.15208     0.15899
 PZ  C   7  -0.01308     0.02065    -0.06038     0.15813     0.06942     0.09829
  
  S  C   8   0.05619    -0.04839    -0.03102     0.01935    -0.04627     0.00587
 PX  C   8  -0.10623    -0.01159    -0.00461     0.16463    -0.10944    -0.17073
 PY  C   8   0.01902     0.10272     0.11119     0.05021     0.14041    -0.15876
 PZ  C   8  -0.01027     0.04323    -0.05248     0.10804     0.04997     0.04210
  
  S  C   9  -0.01777     0.05924     0.00520     0.00694     0.00560     0.00004
 PX  C   9   0.07021     0.04889     0.03797    -0.17287     0.13229     0.16467
 PY  C   9  -0.23674    -0.15121     0.04808     0.04542    -0.21378     0.20625
 PZ  C   9   0.00124    -0.02013    -0.11255     0.23591     0.13906     0.12065
  
  S  C  10   0.05896    -0.00551    -0.00261    -0.01900    -0.01182    -0.00895
 PX  C  10  -0.08773    -0.05590     0.05706     0.17364    -0.15310    -0.14003
 PY  C  10   0.17114     0.19875     0.01877    -0.04571     0.19879    -0.20443
 PZ  C  10   0.00516    -0.02296    -0.11183     0.28543     0.14771     0.12897
  
  S  C  11  -0.05204     0.05099     0.02286     0.04286    -0.03570     0.00721
 PX  C  11   0.04218     0.08772    -0.01899    -0.16937     0.11339     0.14541
 PY  C  11  -0.08596     0.00232     0.12751     0.06818    -0.09563     0.16538
 PZ  C  11   0.01676    -0.06544    -0.05234     0.11445     0.07900     0.07401
  
  S  H  12   0.06531     0.05586    -0.11889    -0.12213     0.14235    -0.08724
  
  S  C  13   0.04140    -0.06700     0.00386     0.00173    -0.04437     0.02837
 PX  C  13   0.15239    -0.10948     0.03329     0.18083    -0.07924    -0.17076
 PY  C  13   0.11146     0.14029    -0.07659    -0.05817     0.12615    -0.18566
 PZ  C  13   0.04580    -0.04089    -0.06735     0.08075     0.10116    -0.01246
  
  S  H  14   0.13944     0.06615     0.10725    -0.04722     0.19299    -0.05890
  
  S  H  15   0.25061    -0.04580    -0.12628    -0.09227    -0.05067     0.10912
  
  S  H  16  -0.09465    -0.12113     0.19628     0.02597     0.15171    -0.02835
  
  S  H  17  -0.10300    -0.12409     0.20731     0.01193     0.15122    -0.02274
  
  S  H  18  -0.06220     0.21661    -0.08889     0.06371    -0.08450    -0.10062
  
  S  H  19   0.09539     0.06374     0.09090    -0.03881     0.17415    -0.05301
  
  S  H  20   0.05976     0.12256    -0.09773    -0.12152     0.15794    -0.09637
  
  S  C  21  -0.00602     0.00905     0.02945     0.04564    -0.02781    -0.00715
 PX  C  21  -0.21840     0.10057    -0.09157    -0.16529     0.10961     0.10667
 PY  C  21   0.11183     0.18824     0.15287     0.05663    -0.04730     0.11383
 PZ  C  21  -0.01199    -0.10766     0.10204    -0.15311    -0.15503    -0.07599
  
  S  C  22   0.00776    -0.03539    -0.00066    -0.01459    -0.01035    -0.00339
 PX  C  22   0.20286    -0.06212     0.08760     0.03120    -0.09912    -0.08645
 PY  C  22  -0.13071    -0.25371    -0.16365    -0.05713     0.03040    -0.13763
 PZ  C  22  -0.06885    -0.04596     0.12863    -0.22617    -0.17496    -0.05262
  
  S  C  23  -0.01005    -0.01199    -0.02061     0.00622     0.01004    -0.02182
 PX  C  23  -0.22016     0.11439    -0.01960    -0.07917     0.05113     0.11293
 PY  C  23   0.13984     0.26746     0.17187     0.07098    -0.03818     0.11969
 PZ  C  23   0.00354    -0.03913     0.16144    -0.19455    -0.19170    -0.07405
  
  S  C  24  -0.01978    -0.03866     0.02976    -0.00585    -0.03134     0.04002
 PX  C  24   0.21841    -0.12064    -0.01306     0.06802    -0.03693    -0.15518
 PY  C  24  -0.01938    -0.17881    -0.17248    -0.05320     0.04885    -0.18604
 PZ  C  24   0.02574    -0.04852     0.13515    -0.13254    -0.14489    -0.06674
  
  S  H  25  -0.19938    -0.10689    -0.17515    -0.11194     0.09393    -0.05736
  
  S  H  26   0.21116    -0.06991     0.05908     0.06959    -0.06825    -0.08227
  
  S  H  27  -0.01471     0.28087     0.12592     0.01339     0.00212     0.16278
  
  S  H  28  -0.13456    -0.10135    -0.14592    -0.08295     0.06793    -0.06531
  
  S  C  29   0.03885    -0.01250     0.00748    -0.01381    -0.00648     0.01252
 PX  C  29   0.21261    -0.07896     0.11541     0.18145    -0.12802    -0.10625
 PY  C  29  -0.02292    -0.02566    -0.20349    -0.11078     0.12990    -0.19756
 PZ  C  29   0.01706    -0.12379     0.03505    -0.02501    -0.04507    -0.01773
  
  S  C  30  -0.02562     0.03230    -0.00884     0.00616     0.00549    -0.00393
 PX  C  30  -0.16000     0.17390    -0.04523    -0.18535     0.11922     0.14170
 PY  C  30   0.01413     0.11398     0.23900     0.12242    -0.12963     0.20584
 PZ  C  30   0.04707    -0.10895     0.03227    -0.02475    -0.03202    -0.06717




    ROOT NO.   37          38          39          40          41          42

           -10.63328    -9.89217    -9.68066    -8.30105    -8.08305    -6.74591
  
  
  S  C   1   0.00209    -0.00914     0.00132     0.00224    -0.00893    -0.00211
 PX  C   1   0.00643    -0.00816    -0.00100     0.00722    -0.00996    -0.00720
 PY  C   1  -0.01031    -0.01204    -0.00841     0.00650    -0.00462    -0.00248
 PZ  C   1   0.11901     0.36155     0.13564    -0.26398     0.24136     0.18877
  
  S  C   2  -0.00549     0.00362    -0.00336     0.00371     0.00546    -0.00266
 PX  C   2  -0.02416    -0.01073    -0.01993     0.02107     0.00659    -0.01289
 PY  C   2   0.02209     0.02038     0.02547    -0.02153     0.00233     0.01206
 PZ  C   2   0.24227     0.16729     0.30799    -0.34705    -0.05782     0.23574
  
  S  C   3  -0.00210     0.00283    -0.00020    -0.00300    -0.00148     0.00273
 PX  C   3  -0.00355     0.00482    -0.00446    -0.00295    -0.00094     0.00394
 PY  C   3  -0.00664    -0.01847    -0.01247     0.00977    -0.00574    -0.00450
 PZ  C   3   0.25896    -0.20479     0.25786    -0.00109    -0.35714    -0.12680
  
  S  C   4   0.00423     0.00779     0.00104     0.00304     0.00644    -0.00688
 PX  C   4   0.00412     0.00473     0.00678    -0.00144     0.00821    -0.00502
 PY  C   4   0.00961     0.02388     0.01580    -0.01018     0.00956     0.00087
 PZ  C   4  -0.22983    -0.28575    -0.17444     0.09058    -0.33626     0.13118
  
  S  C   5  -0.00193    -0.00223    -0.00317     0.00285    -0.00274    -0.00016
 PX  C   5   0.00737     0.00222     0.00317    -0.00593     0.00100     0.00504
 PY  C   5  -0.00348    -0.00239    -0.00513     0.00232     0.00098    -0.00076
 PZ  C   5  -0.22826     0.05697    -0.31795     0.33828     0.03541    -0.22804
  
  S  C   6  -0.00601     0.00982    -0.00754     0.00642     0.01109    -0.00697
 PX  C   6   0.00069    -0.02550     0.01281    -0.01153    -0.02031     0.01295
 PY  C   6   0.01051     0.00074     0.01238    -0.00806    -0.00518     0.00467
 PZ  C   6  -0.10213     0.30551    -0.19466     0.17630     0.30218    -0.19439
  
  S  C   7   0.00348     0.00435     0.00785     0.00206     0.00225    -0.00636
 PX  C   7  -0.00759     0.00401    -0.00062     0.00115     0.00976     0.00166
 PY  C   7  -0.02664     0.01910     0.00277    -0.00520     0.00621     0.00452
 PZ  C   7   0.35559    -0.15984     0.19301     0.21124     0.02546    -0.35913
  
  S  C   8  -0.00717    -0.00092     0.00063    -0.00785    -0.00073     0.01002
 PX  C   8   0.01376     0.01358    -0.00050     0.01166     0.00273    -0.01469
 PY  C   8   0.01043    -0.00324    -0.00209     0.01054     0.00358    -0.01533
 PZ  C   8  -0.35227    -0.25517    -0.14389    -0.22232    -0.02502     0.37990
  
  S  C   9  -0.01330     0.00801     0.00771    -0.00497     0.00227    -0.01299
 PX  C   9  -0.00078    -0.00113     0.00761     0.00248    -0.00860    -0.00216
 PY  C   9  -0.02347     0.03982     0.01489     0.00663    -0.02699    -0.01157
 PZ  C   9  -0.28740    -0.03242     0.01331    -0.28752     0.33996     0.01450
  
  S  C  10  -0.00247    -0.00331    -0.00721    -0.00544    -0.01815     0.00868
 PX  C  10  -0.00792     0.00912    -0.00425    -0.00840    -0.02721     0.00137
 PY  C  10   0.01709    -0.02905    -0.00752    -0.00421    -0.01271     0.00602
 PZ  C  10   0.24021     0.00736    -0.04179     0.17344     0.39280    -0.01070
  
  S  C  11   0.00377     0.01350    -0.00815     0.00430    -0.00224     0.00724
 PX  C  11  -0.02954    -0.01817     0.02842    -0.01795     0.00037    -0.02880
 PY  C  11   0.00635     0.02740    -0.00994     0.00795    -0.00069     0.00642
 PZ  C  11   0.27253     0.21212    -0.27964     0.21068     0.02136     0.37581
  
  S  H  12  -0.00722    -0.02244     0.00998    -0.00673     0.00292    -0.00397
  
  S  C  13   0.02108    -0.01262    -0.01281     0.01219     0.00271     0.02327
 PX  C  13  -0.02494     0.00687     0.01059    -0.01146     0.00586    -0.01528
 PY  C  13   0.08518    -0.05775    -0.04643     0.03188     0.01086     0.05462
 PZ  C  13  -0.32400     0.20791     0.20347    -0.21749    -0.02315    -0.37434
  
  S  H  14   0.01228    -0.01409    -0.00511     0.00175     0.00079     0.00280
  
  S  H  15   0.00527     0.00658     0.00799    -0.00727     0.00353     0.00496
  
  S  H  16  -0.01425    -0.01147    -0.01037     0.00481    -0.00211     0.00039
  
  S  H  17  -0.00331    -0.00687    -0.00208     0.00031    -0.00207     0.00105
  
  S  H  18   0.00664     0.00306     0.00208    -0.00300    -0.00266     0.00344
  
  S  H  19   0.00355    -0.01274    -0.00136     0.00282     0.00206    -0.00491
  
  S  H  20   0.03767    -0.02727    -0.01231     0.00242     0.00448    -0.00103
  
  S  C  21   0.00139     0.01080    -0.01234    -0.01108    -0.00785    -0.00787
 PX  C  21   0.01221     0.00227    -0.01582    -0.01130    -0.01313    -0.00787
 PY  C  21  -0.00272     0.01613    -0.01591    -0.01633    -0.01066    -0.01111
 PZ  C  21   0.19779    -0.17304    -0.32786    -0.33864    -0.04500    -0.21921
  
  S  C  22   0.00021    -0.01498     0.00236    -0.00529     0.00779    -0.00612
 PX  C  22   0.03758    -0.08607    -0.03676    -0.05173     0.04361    -0.03372
 PY  C  22   0.00316    -0.02614     0.01255     0.00612     0.01236     0.00244
 PZ  C  22   0.12717    -0.35815    -0.13553    -0.24494     0.19833    -0.18353
  
  S  C  23   0.00245     0.00199    -0.00059     0.00458    -0.00080     0.00483
 PX  C  23  -0.02114     0.01907     0.02420     0.01827    -0.00249     0.01037
 PY  C  23   0.00528     0.02174    -0.02707    -0.02103    -0.01182    -0.01359
 PZ  C  23  -0.03873    -0.31706     0.24417     0.21115     0.26984     0.19996
  
  S  C  24  -0.01311    -0.00042     0.01682     0.00620     0.00260     0.00003
 PX  C  24   0.02035    -0.02985    -0.01111    -0.00332     0.01037     0.00128
 PY  C  24  -0.00670    -0.02628     0.03540     0.03163     0.00949     0.02003
 PZ  C  24  -0.15623    -0.07982     0.37749     0.35184     0.05236     0.22579
  
  S  H  25   0.00342    -0.00603     0.01251     0.01728     0.00228     0.01318
  
  S  H  26   0.01307    -0.02373    -0.00959    -0.00603     0.00918     0.00102
  
  S  H  27  -0.00635     0.03000    -0.00959    -0.00574    -0.01150    -0.00325
  
  S  H  28  -0.00631    -0.00432     0.01410     0.00811     0.00003     0.00374
  
  S  C  29   0.01665    -0.00796    -0.00976     0.00488     0.00140     0.00720
 PX  C  29  -0.00270     0.00470    -0.00969    -0.00670    -0.00135     0.00170
 PY  C  29   0.01856    -0.02753    -0.00266     0.00790    -0.00004     0.01441
 PZ  C  29   0.16762     0.25504    -0.29020     0.00830    -0.33556     0.15566
  
  S  C  30  -0.01046     0.00419     0.00195    -0.01054    -0.00046    -0.01266
 PX  C  30   0.01190     0.00276    -0.00306     0.00454    -0.00969     0.00269
 PY  C  30  -0.02431     0.04582    -0.00287    -0.01276    -0.01628    -0.01586
 PZ  C  30  -0.21417     0.28795     0.21641     0.06835    -0.31089    -0.15563




    ROOT NO.   43          44          45          46          47          48

            -0.98765     0.24186     0.33099     1.28368     1.41027     1.84235
  
  
  S  C   1  -0.00663    -0.00554     0.00982    -0.01184    -0.01029     0.00937
 PX  C   1  -0.00608    -0.01213     0.00945    -0.00580    -0.01760     0.00450
 PY  C   1  -0.00222     0.00212     0.00226    -0.00288     0.00276     0.00263
 PZ  C   1   0.18770     0.23451    -0.26085     0.12004     0.37833    -0.10233
  
  S  C   2   0.00461    -0.00020    -0.00693     0.01525     0.00556    -0.01185
 PX  C   2   0.01194    -0.00293    -0.01569     0.01671     0.00917    -0.01136
 PY  C   2  -0.01042     0.00240     0.01594    -0.01230    -0.01051     0.01137
 PZ  C   2  -0.23884     0.05645     0.32827    -0.30613    -0.20734     0.23429
  
  S  C   3  -0.00147     0.00253     0.00036    -0.00906     0.00187    -0.00121
 PX  C   3   0.00160     0.00130    -0.00045    -0.00554    -0.00010    -0.00220
 PY  C   3   0.00122     0.00178    -0.00383     0.00413     0.00546    -0.00381
 PZ  C   3  -0.12027    -0.36353     0.01130     0.27804    -0.17557    -0.26650
  
  S  C   4   0.00741    -0.01258    -0.00183     0.00369    -0.00963    -0.00248
 PX  C   4   0.00458    -0.00762     0.00521    -0.00770    -0.00645     0.00800
 PY  C   4   0.00206    -0.00646     0.00661    -0.00797    -0.00778     0.00172
 PZ  C   4  -0.15151     0.33334    -0.09543     0.16505     0.31332    -0.22989
  
  S  C   5  -0.00712     0.00644     0.00688    -0.00847     0.00671     0.00572
 PX  C   5   0.00520    -0.00111    -0.00979     0.01243    -0.00032    -0.01053
 PY  C   5   0.00315    -0.00288    -0.00431     0.00497    -0.00253    -0.00315
 PZ  C   5  -0.22585     0.05062     0.31804    -0.32803     0.02206     0.23800
  
  S  C   6   0.01254    -0.01305    -0.01282     0.01740    -0.01047    -0.01399
 PX  C   6  -0.01132     0.02123     0.00805    -0.01250     0.02145     0.00652
 PY  C   6  -0.00426     0.00199     0.00548    -0.00608    -0.00159     0.00394
 PZ  C   6   0.20606    -0.30511    -0.15826     0.21608    -0.28431    -0.11896
  
  S  C   7  -0.00165     0.00870    -0.00022     0.00848     0.00491     0.01603
 PX  C   7  -0.00571     0.00773     0.00337     0.00520     0.00095    -0.00091
 PY  C   7  -0.01279     0.00920     0.00774     0.01061    -0.00022    -0.00784
 PZ  C   7   0.36862    -0.01937    -0.20999    -0.19127     0.13381     0.35584
  
  S  C   8   0.00110     0.00172    -0.00829    -0.00220    -0.00352     0.02187
 PX  C   8  -0.01728    -0.00534     0.00579     0.00836     0.00608    -0.00900
 PY  C   8  -0.00857    -0.00472     0.00548     0.00463     0.00325    -0.00884
 PZ  C   8   0.37682    -0.02358    -0.22992    -0.11436    -0.26314     0.32885
  
  S  C   9  -0.00412     0.00656     0.00617     0.00350     0.01103    -0.00693
 PX  C   9   0.00370     0.01430    -0.00759     0.00145     0.00009     0.01372
 PY  C   9  -0.01035     0.00865    -0.02429     0.00759     0.00145     0.02894
 PZ  C   9  -0.01027    -0.33585     0.31026    -0.02479     0.04427    -0.27873
  
  S  C  10   0.00913    -0.02708    -0.01183    -0.01462    -0.00864     0.00133
 PX  C  10  -0.00052    -0.02263    -0.00948    -0.00469     0.00168     0.00492
 PY  C  10   0.00927    -0.01316    -0.00387    -0.00279    -0.00398     0.00860
 PZ  C  10  -0.02467     0.40043     0.16593    -0.05471     0.00116    -0.25418
  
  S  C  11  -0.01194     0.00943     0.00265     0.02211     0.00230     0.01400
 PX  C  11   0.02802    -0.00342     0.01226    -0.01414     0.01291    -0.00440
 PY  C  11  -0.00954     0.00118    -0.00224     0.01525     0.00097     0.01657
 PZ  C  11  -0.36848    -0.04128    -0.20779     0.29302    -0.18865     0.26799
  
  S  H  12   0.00459    -0.00470     0.00221    -0.00336    -0.00027    -0.00116
  
  S  C  13   0.02209     0.00067     0.01238    -0.02494    -0.02144    -0.04192
 PX  C  13  -0.01824    -0.00546    -0.00734     0.00898     0.01109     0.01213
 PY  C  13   0.04628     0.00331     0.02978    -0.02740    -0.02469    -0.05050
 PZ  C  13  -0.35830    -0.03691    -0.20380     0.19549     0.20466     0.33152
  
  S  H  14   0.00114    -0.00331     0.00279    -0.00247    -0.00320    -0.01226
  
  S  H  15   0.00112     0.00646    -0.00260     0.00345     0.00750    -0.00226
  
  S  H  16  -0.00415     0.00419     0.00604    -0.01120    -0.00243     0.01087
  
  S  H  17   0.00144     0.00015    -0.00347     0.00468    -0.00019    -0.00240
  
  S  H  18  -0.00794     0.00986     0.00832    -0.01205     0.00885     0.00997
  
  S  H  19  -0.00050    -0.00069     0.00581     0.00269     0.00331    -0.01672
  
  S  H  20  -0.01309    -0.00081    -0.00812     0.02287     0.01829     0.03953
  
  S  C  21   0.00303     0.00598     0.01747     0.04018     0.01470     0.04181
 PX  C  21   0.02914    -0.00007     0.03106     0.00696     0.01575    -0.00096
 PY  C  21   0.01080     0.00034     0.01419     0.00884     0.01105     0.00711
 PZ  C  21   0.21697     0.07428     0.35078     0.31075     0.16814     0.20563
  
  S  C  22  -0.00510     0.00979    -0.01336    -0.01275    -0.03216    -0.02269
 PX  C  22  -0.03793     0.02824    -0.04871    -0.01771    -0.06004    -0.02214
 PY  C  22  -0.00628     0.00639    -0.00265     0.01085    -0.00931     0.00801
 PZ  C  22  -0.19666     0.16919    -0.27330    -0.11295    -0.36337    -0.14885
  
  S  C  23   0.00141    -0.00647    -0.00099    -0.01074     0.01362    -0.00287
 PX  C  23  -0.00071    -0.00874     0.00313     0.00400     0.01285     0.00823
 PY  C  23   0.00375     0.01079     0.00215     0.00413    -0.01644    -0.00485
 PZ  C  23  -0.19490    -0.28385    -0.19630    -0.24978     0.32607    -0.01196
  
  S  C  24   0.00179     0.00892     0.00973     0.02491    -0.01706     0.01039
 PX  C  24  -0.00018     0.00284    -0.00117     0.00005    -0.00573    -0.00142
 PY  C  24   0.01524     0.00520     0.02331     0.02336    -0.00510     0.00969
 PZ  C  24   0.22322     0.08974     0.35445     0.36411    -0.09224     0.13656
  
  S  H  25  -0.00129    -0.00699    -0.00718    -0.02023    -0.00212    -0.02043
  
  S  H  26  -0.00156    -0.00987     0.00620     0.00675     0.02826     0.01698
  
  S  H  27   0.00125    -0.00154     0.00219     0.00289     0.00229     0.00238
  
  S  H  28  -0.00288    -0.00836    -0.00812    -0.01854     0.01624    -0.00609
  
  S  C  29   0.01044    -0.00472    -0.00353    -0.03637    -0.01187    -0.04225
 PX  C  29  -0.01412    -0.00648    -0.01511    -0.01113    -0.00418    -0.00865
 PY  C  29   0.00427    -0.00268     0.00461    -0.00078    -0.00364    -0.00711
 PZ  C  29   0.17155    -0.32755     0.02540    -0.30603     0.25096    -0.16133
  
  S  C  30  -0.00582     0.00140    -0.00386     0.00913     0.00948     0.01912
 PX  C  30   0.01038     0.00795     0.00259    -0.00730    -0.00753    -0.00965
 PY  C  30  -0.00490     0.00284    -0.01213    -0.01648    -0.00284    -0.01232
 PZ  C  30   0.14797     0.30087    -0.10770    -0.21383    -0.29584    -0.23489




    ROOT NO.   49          50          51          52          53          54

             2.35595     2.51424     2.88777     3.13944     3.30418     3.37061
  
  
  S  C   1  -0.05004    -0.11819    -0.20080    -0.14977     0.23000    -0.00664
 PX  C   1  -0.00068    -0.03323    -0.01962    -0.03209     0.00412    -0.04836
 PY  C   1  -0.00701    -0.00437    -0.01099     0.01246    -0.00702     0.05117
 PZ  C   1  -0.25072     0.16847    -0.07530     0.18531     0.14632    -0.00284
  
  S  C   2   0.07095     0.16412     0.23308     0.17520    -0.20234     0.06919
 PX  C   2   0.00326     0.02482    -0.00259     0.00257     0.04578     0.02539
 PY  C   2   0.03151     0.03999     0.04890     0.01336    -0.02151     0.01989
 PZ  C   2   0.16176    -0.11291     0.07099    -0.18810    -0.15314    -0.00471
  
  S  C   3  -0.10871    -0.22589    -0.27176    -0.14900     0.13742    -0.06747
 PX  C   3  -0.00942     0.00377     0.05617     0.03300    -0.04702    -0.10043
 PY  C   3  -0.01339    -0.02338    -0.01232     0.03578    -0.06284     0.08891
 PZ  C   3   0.00339     0.02518    -0.05210     0.22673     0.19340     0.00819
  
  S  C   4   0.09948     0.21875     0.24884     0.04782    -0.00103    -0.21107
 PX  C   4   0.01515     0.04125    -0.00029    -0.00051     0.04649     0.05044
 PY  C   4  -0.00233    -0.00911    -0.06176    -0.07478     0.11023    -0.07076
 PZ  C   4   0.03801    -0.05585     0.05006    -0.23750    -0.19484    -0.01338
  
  S  C   5  -0.07274    -0.13680    -0.20277    -0.03977     0.07302     0.22345
 PX  C   5  -0.01316    -0.05501    -0.03654    -0.00537    -0.03763     0.03621
 PY  C   5   0.00529     0.00120     0.01718     0.01148    -0.03119    -0.00793
 PZ  C   5  -0.19642     0.15892    -0.05238     0.22051     0.15318    -0.00493
  
  S  C   6   0.05937     0.09102     0.17095     0.05812    -0.13485    -0.15623
 PX  C   6  -0.00599     0.04263     0.03458     0.03425    -0.01670    -0.01079
 PY  C   6   0.00387     0.00622    -0.00887    -0.03692     0.05846    -0.06045
 PZ  C   6   0.26285    -0.19778     0.05386    -0.20666    -0.13431     0.01320
  
  S  C   7   0.12781     0.20729     0.14581     0.02369     0.00197     0.22226
 PX  C   7   0.01079    -0.01968    -0.08635    -0.06946     0.08650     0.05557
 PY  C   7   0.04060     0.03200    -0.01855    -0.03032     0.05481     0.05472
 PZ  C   7  -0.17353     0.09463    -0.00792    -0.09794    -0.10549    -0.00954
  
  S  C   8  -0.11983    -0.23514    -0.12456     0.11474    -0.22609     0.18882
 PX  C   8  -0.03824    -0.03722     0.05350     0.08203    -0.10816    -0.02007
 PY  C   8   0.00780     0.03153     0.05671     0.03229    -0.03859    -0.03561
 PZ  C   8   0.12808    -0.05537     0.02067     0.08928     0.11110     0.00297
  
  S  C   9   0.16478     0.25861     0.01680    -0.23176     0.33058    -0.07319
 PX  C   9   0.02372    -0.00654    -0.06298    -0.01662    -0.01596     0.08191
 PY  C   9  -0.00995    -0.03203    -0.03271    -0.01963    -0.02434    -0.14790
 PZ  C   9  -0.26544     0.18099    -0.08047     0.04684    -0.04593    -0.01635
  
  S  C  10  -0.18731    -0.23842    -0.01693     0.10912    -0.19109    -0.28805
 PX  C  10  -0.02011     0.02408     0.07986    -0.03119     0.05500    -0.08767
 PY  C  10  -0.02983    -0.02163     0.03616     0.08495    -0.11276     0.08140
 PZ  C  10   0.29142    -0.20974     0.06237    -0.03006     0.02367     0.00388
  
  S  C  11   0.16424     0.20201    -0.13275    -0.01348     0.01099     0.32067
 PX  C  11  -0.01246    -0.04091    -0.07100     0.03515    -0.10139    -0.03579
 PY  C  11   0.02838     0.02504    -0.06389     0.02044    -0.04879     0.01940
 PZ  C  11  -0.13422     0.07454    -0.05424     0.15208     0.05006    -0.05775
  
  S  H  12  -0.08776    -0.11289     0.08122     0.02683    -0.02877    -0.16130
  
  S  C  13  -0.13107    -0.18327     0.09826     0.18945    -0.12875     0.14489
 PX  C  13  -0.00029     0.00351     0.08780    -0.04414     0.10359     0.01389
 PY  C  13   0.02041     0.06636     0.00287    -0.02311     0.08386    -0.01093
 PZ  C  13   0.06768    -0.10646     0.09555    -0.15059    -0.05047     0.01955
  
  S  H  14  -0.06648    -0.11535    -0.09006     0.00518    -0.02173    -0.10068
  
  S  H  15   0.03342     0.08093     0.13676     0.10550    -0.16496     0.01779
  
  S  H  16  -0.03467    -0.09123    -0.13525    -0.10428     0.11214    -0.01472
  
  S  H  17   0.03741     0.07389     0.12429     0.03936    -0.07047    -0.11319
  
  S  H  18  -0.03856    -0.05406    -0.10158    -0.02704     0.07180     0.10721
  
  S  H  19   0.06951     0.13876     0.07809    -0.06343     0.14446    -0.08443
  
  S  H  20   0.07312     0.09276    -0.05042    -0.11337     0.06340    -0.03701
  
  S  C  21   0.12428     0.11506    -0.23377     0.07533    -0.19570     0.13703
 PX  C  21  -0.02583    -0.06409     0.05467     0.01541     0.03626    -0.09864
 PY  C  21   0.01663    -0.00509    -0.02129     0.02208    -0.01553    -0.04088
 PZ  C  21   0.19450    -0.14440     0.00102     0.21487     0.12878    -0.04860
  
  S  C  22  -0.11417    -0.06502     0.20785    -0.09727     0.17286     0.06005
 PX  C  22  -0.02371     0.05434    -0.04342    -0.03190    -0.04539    -0.00923
 PY  C  22  -0.00021     0.01364     0.00356     0.00442    -0.00904     0.13120
 PZ  C  22  -0.26485     0.18262    -0.01542    -0.19490    -0.12430     0.03098
  
  S  C  23   0.09142     0.08052    -0.21096     0.02667    -0.13403    -0.28549
 PX  C  23  -0.00807    -0.02740     0.02490     0.02268    -0.01012     0.05054
 PY  C  23  -0.02672    -0.00101     0.02887    -0.03279     0.02879    -0.02872
 PZ  C  23   0.28048    -0.16367    -0.00310     0.19763     0.11052    -0.01432
  
  S  C  24  -0.12576    -0.11481     0.24620    -0.00060     0.10297     0.29423
 PX  C  24   0.00476     0.02132     0.00371    -0.02856     0.02952     0.03951
 PY  C  24   0.01170     0.04658    -0.03958    -0.03826    -0.01031    -0.00406
 PZ  C  24  -0.21704     0.11483     0.01930    -0.21844    -0.11309    -0.00169
  
  S  H  25  -0.05954    -0.06295     0.13529    -0.03286     0.11852    -0.05309
  
  S  H  26   0.08438     0.03695    -0.13404     0.07666    -0.10787    -0.02761
  
  S  H  27  -0.04211    -0.05566     0.12212     0.00359     0.07903     0.18447
  
  S  H  28   0.08335     0.05913    -0.15889     0.02516    -0.07812    -0.17315
  
  S  C  29  -0.16728    -0.18341     0.27446    -0.03860     0.17420    -0.21710
 PX  C  29   0.00132     0.02918     0.02481    -0.04991     0.05442    -0.01329
 PY  C  29  -0.00321     0.00458     0.05137     0.01922     0.02762     0.14216
 PZ  C  29  -0.05156     0.03756     0.05627    -0.28801    -0.13471     0.07058
  
  S  C  30   0.13866     0.17583    -0.25386    -0.07216    -0.08126    -0.13396
 PX  C  30   0.00999    -0.00800    -0.07159     0.07037    -0.09756     0.03147
 PY  C  30  -0.01260    -0.02626     0.01116    -0.00503     0.02193    -0.15296
 PZ  C  30   0.08879    -0.00996    -0.08828     0.29788     0.12253    -0.03311




    ROOT NO.   55          56          57          58          59          60

             3.59843     3.73153     3.76922     3.93263     4.22387     4.27217
  
  
  S  C   1  -0.10284    -0.31772     0.27145    -0.01085    -0.07400     0.03533
 PX  C   1  -0.00645     0.09656     0.00190    -0.09747    -0.12601    -0.01307
 PY  C   1   0.00799    -0.04142    -0.04284     0.08017     0.07443    -0.02137
 PZ  C   1   0.13517    -0.01344     0.02124    -0.02419    -0.02532    -0.00036
  
  S  C   2   0.07126     0.01400    -0.15010     0.19494     0.29695     0.01610
 PX  C   2  -0.02388    -0.17254     0.10161     0.05472     0.02070     0.01706
 PY  C   2  -0.02509    -0.08627     0.05480     0.02152    -0.05664    -0.00255
 PZ  C   2  -0.17032     0.01102    -0.01342     0.02520     0.03011     0.00517
  
  S  C   3   0.01806     0.29449    -0.11300    -0.19765    -0.03081     0.03342
 PX  C   3   0.01454     0.04139     0.05140    -0.00897     0.15828     0.08420
 PY  C   3   0.04192     0.07145    -0.16338     0.08967     0.09036    -0.03517
 PZ  C   3   0.29261    -0.02344     0.01883    -0.03061    -0.01735    -0.00110
  
  S  C   4  -0.05535    -0.18604     0.31936    -0.05933     0.00776     0.08068
 PX  C   4  -0.00297    -0.10461    -0.02769     0.10532     0.16936     0.00429
 PY  C   4  -0.00976     0.09385    -0.01575    -0.10454     0.07844     0.06032
 PZ  C   4  -0.29219     0.01386    -0.00460     0.03265     0.02020    -0.00227
  
  S  C   5   0.01596    -0.10462    -0.19889     0.23051     0.31457    -0.01747
 PX  C   5   0.01766     0.13387    -0.10763    -0.04597    -0.07063    -0.01102
 PY  C   5   0.01634     0.07755    -0.05151    -0.01578     0.02192     0.00122
 PZ  C   5   0.18839     0.00480     0.00879    -0.03216    -0.02285     0.00247
  
  S  C   6   0.04462     0.33719    -0.06051    -0.21715    -0.16909     0.01754
 PX  C   6   0.01860     0.01758    -0.00811     0.00208    -0.01282    -0.01267
 PY  C   6  -0.03709    -0.07458     0.14026    -0.06863    -0.11597     0.01688
 PZ  C   6  -0.14792    -0.01618    -0.00799     0.03415     0.02123    -0.00358
  
  S  C   7  -0.04422    -0.23067    -0.08107     0.11977    -0.28842    -0.20007
 PX  C   7  -0.00484     0.07662    -0.08500    -0.08054    -0.08484    -0.00910
 PY  C   7   0.00114     0.03003    -0.04842    -0.05457     0.02448     0.05330
 PZ  C   7  -0.26449     0.03992    -0.02808     0.02186     0.01271     0.00440
  
  S  C   8   0.08318     0.03180    -0.07765     0.13169    -0.30086    -0.15968
 PX  C   8  -0.01117    -0.06633     0.13223    -0.01326    -0.00152     0.07537
 PY  C   8  -0.00843    -0.05683     0.09075     0.00658    -0.06656    -0.00889
 PZ  C   8   0.24156    -0.03466     0.01908    -0.03346     0.00568     0.02493
  
  S  C   9  -0.04144     0.08755    -0.16549    -0.07025     0.09796    -0.10431
 PX  C   9   0.04317     0.02804    -0.06678     0.07909    -0.13701    -0.11808
 PY  C   9   0.05387     0.04904     0.09117     0.07369     0.08010    -0.11786
 PZ  C   9  -0.30655     0.05874    -0.01524     0.04666    -0.00745    -0.04503
  
  S  C  10   0.04951     0.02093     0.24461     0.06716     0.15421    -0.02786
 PX  C  10  -0.01321    -0.04731    -0.05183     0.04083     0.00793    -0.18413
 PY  C  10  -0.00733    -0.09040     0.02625     0.06505    -0.13197    -0.01950
 PZ  C  10   0.32833    -0.05567     0.05206    -0.02989     0.00736     0.00204
  
  S  C  11  -0.04021     0.07759    -0.00657    -0.05684    -0.08502     0.35520
 PX  C  11   0.02660     0.03832     0.15127     0.00602     0.04438     0.03969
 PY  C  11   0.00539     0.03227     0.08200     0.00551     0.03454    -0.07204
 PZ  C  11  -0.23267     0.04687    -0.02244     0.04058     0.00197    -0.01869
  
  S  H  12   0.02354    -0.06737     0.01444     0.02214     0.05422    -0.32348
  
  S  C  13  -0.08112    -0.15415    -0.03822    -0.17318    -0.02123     0.34592
 PX  C  13  -0.02539    -0.03007    -0.09250    -0.11456     0.02710    -0.05655
 PY  C  13  -0.05703     0.02262    -0.03754    -0.04299     0.01909     0.02896
 PZ  C  13   0.22068    -0.07326    -0.00314    -0.05196     0.00364     0.09304
  
  S  H  14   0.03430     0.15993     0.03616    -0.07623     0.25329     0.19830
  
  S  H  15   0.07134     0.21933    -0.20012     0.01614     0.02181    -0.04664
  
  S  H  16  -0.04920    -0.01593     0.08124    -0.11993    -0.25787    -0.03652
  
  S  H  17  -0.00657     0.06240     0.11761    -0.13827    -0.26378    -0.00925
  
  S  H  18  -0.02270    -0.20570     0.02572     0.14354     0.08037    -0.02829
  
  S  H  19  -0.06224    -0.03600     0.02859    -0.09029     0.26858     0.16439
  
  S  H  20   0.06679     0.09548     0.03184     0.10214     0.00001    -0.30150
  
  S  C  21  -0.00301    -0.02157     0.15093    -0.27167     0.16067    -0.22673
 PX  C  21  -0.01869    -0.08610    -0.12250    -0.07449     0.02141    -0.05783
 PY  C  21  -0.00881    -0.05849    -0.07020    -0.04001    -0.01153     0.02073
 PZ  C  21  -0.14116     0.05343    -0.00703     0.06523    -0.01546     0.00613
  
  S  C  22   0.02148     0.22016     0.15426     0.32745    -0.08530     0.11296
 PX  C  22   0.02691    -0.01268     0.00214     0.00237    -0.00027    -0.01070
 PY  C  22  -0.00906     0.07516     0.13618    -0.05623     0.06603    -0.08168
 PZ  C  22   0.10774    -0.05702    -0.01351    -0.05773     0.00608     0.01282
  
  S  C  23   0.03091    -0.23720    -0.27869    -0.06204    -0.04820     0.02766
 PX  C  23  -0.01524    -0.03936    -0.01051    -0.13435     0.05377    -0.09763
 PY  C  23   0.01743     0.03151     0.00362     0.10330    -0.03907     0.03519
 PZ  C  23  -0.10743     0.05131     0.01669     0.03411     0.00146    -0.02436
  
  S  C  24  -0.05271     0.06954     0.13041    -0.23338     0.12855    -0.21163
 PX  C  24   0.01117     0.11598     0.12415     0.11577    -0.00215     0.02134
 PY  C  24   0.02755     0.06502     0.08609     0.05241     0.02834    -0.03870
 PZ  C  24   0.14246    -0.05973    -0.02220    -0.01688    -0.01176     0.05205
  
  S  H  25  -0.00900     0.01031    -0.10398     0.16549    -0.12273     0.20526
  
  S  H  26  -0.02475    -0.14593    -0.10664    -0.22357     0.05078    -0.04651
  
  S  H  27  -0.03145     0.13970     0.16481     0.02886     0.02253     0.02425
  
  S  H  28   0.02356    -0.05879    -0.09679     0.15293    -0.10713     0.20640
  
  S  C  29  -0.02237    -0.14408    -0.28326    -0.00977    -0.03581    -0.06032
 PX  C  29   0.01832     0.04551    -0.02636     0.15509    -0.08750     0.14323
 PY  C  29  -0.04492    -0.03820    -0.06435    -0.13026    -0.01450     0.11440
 PZ  C  29   0.25480    -0.05904     0.03057    -0.05239     0.00653     0.02198
  
  S  C  30   0.09481     0.16823     0.19518     0.30792    -0.02407    -0.01921
 PX  C  30  -0.01044    -0.03446     0.01569    -0.00498    -0.02633     0.16316
 PY  C  30   0.00853    -0.06618    -0.13029     0.07887    -0.05712     0.04242
 PZ  C  30  -0.25657     0.07522    -0.00100     0.04442    -0.00079    -0.06044




    ROOT NO.   61          62          63          64          65          66

             5.22900     5.36759     5.45226     5.74299     6.13638     6.44589
  
  
  S  C   1  -0.17796    -0.19423     0.01205     0.06163     0.04698    -0.00959
 PX  C   1   0.16140     0.08859     0.00052    -0.14136    -0.11785     0.03981
 PY  C   1   0.11389     0.28945    -0.02970     0.04175     0.00481    -0.00295
 PZ  C   1   0.00325    -0.00599     0.00100    -0.00704    -0.00544     0.00237
  
  S  C   2  -0.20219    -0.09787     0.00006     0.15991     0.12540    -0.04712
 PX  C   2  -0.15275    -0.14921     0.00925     0.06366     0.05073    -0.01539
 PY  C   2   0.07651     0.10028    -0.00703    -0.11192    -0.18037     0.11977
 PZ  C   2  -0.02201    -0.01847     0.00084     0.01205     0.01232    -0.00645
  
  S  C   3   0.05320    -0.02125    -0.00088     0.05978     0.15145    -0.10621
 PX  C   3  -0.13665     0.07610    -0.02177     0.07491    -0.07699     0.08350
 PY  C   3  -0.06435    -0.08715     0.00903     0.10324     0.16799    -0.10262
 PZ  C   3   0.00770     0.00469     0.00020    -0.00122    -0.00029    -0.00067
  
  S  C   4  -0.03678     0.09101    -0.01443    -0.06019    -0.16948     0.10056
 PX  C   4   0.09017    -0.03453     0.01479    -0.14202    -0.10674     0.04007
 PY  C   4   0.11518    -0.00110    -0.00006     0.00064     0.14326    -0.12124
 PZ  C   4  -0.00322     0.00186    -0.00023    -0.00648    -0.00814     0.00243
  
  S  C   5   0.11132    -0.10290     0.02676    -0.20578    -0.14604     0.04444
 PX  C   5  -0.00335    -0.07494     0.00553     0.06533     0.14257    -0.07650
 PY  C   5   0.00818    -0.21320     0.03319    -0.19682    -0.18329     0.08295
 PZ  C   5  -0.00145    -0.01004     0.00090     0.00181     0.00561    -0.00295
  
  S  C   6  -0.02961    -0.32259     0.04030    -0.14937    -0.07845     0.02433
 PX  C   6   0.03947     0.23830    -0.03046     0.12921     0.09069    -0.03188
 PY  C   6  -0.11576    -0.03889    -0.00562     0.12328     0.09770    -0.02806
 PZ  C   6   0.00492     0.04185    -0.00524     0.02026     0.01221    -0.00395
  
  S  C   7   0.19328    -0.12004     0.03272    -0.09094     0.09715    -0.10290
 PX  C   7   0.04951    -0.07563     0.00524     0.02253     0.11826    -0.09513
 PY  C   7  -0.08269     0.04271    -0.02945     0.11209    -0.10690     0.25357
 PZ  C   7  -0.01323     0.00084    -0.00238     0.00806    -0.00327     0.00969
  
  S  C   8  -0.22017     0.02137    -0.00803     0.08841    -0.08952     0.10752
 PX  C   8   0.04151    -0.00181    -0.00852    -0.10155     0.02102    -0.12059
 PY  C   8  -0.11192     0.01709    -0.00507     0.01048    -0.17337     0.18564
 PZ  C   8   0.01376    -0.00155    -0.00037    -0.00392     0.00246    -0.00045
  
  S  C   9  -0.01657     0.00694     0.01266     0.13129    -0.02000     0.14277
 PX  C   9  -0.16902     0.03822    -0.00961     0.05990    -0.08345     0.09357
 PY  C   9  -0.07668     0.06518     0.02035    -0.11374    -0.03741    -0.20895
 PZ  C   9  -0.02425     0.00762     0.00023    -0.00829    -0.00976    -0.01421
  
  S  C  10   0.02157     0.04386     0.02519    -0.13947     0.01122    -0.19918
 PX  C  10   0.13719    -0.07198     0.03114     0.06384     0.06509     0.09851
[...]
  S   H   18    0.1237   -0.0420   -0.0260   -0.0611   -0.0006    0.0152    0.3179   -0.0941
  S   H   19    0.1677   -0.2179    0.1946    0.1826    0.1886   -0.0048    0.0402    0.0995
  S   H   20   -0.1495   -0.2564    0.2999   -0.0759    0.1415    0.0490   -0.0092   -0.1222
  S   C   21   -0.1339   -0.0613   -0.0479    0.0181    0.0117    0.0588   -0.0023   -0.0615
  Px  C   21   -0.1128   -0.0862   -0.2706    0.1426    0.2092   -0.0663    0.0049    0.1628
  Py  C   21    0.1420    0.0906    0.1100   -0.0615   -0.0803    0.2173   -0.0091   -0.1706
  Pz  C   21    0.0095    0.0045    0.0123   -0.0063   -0.0105   -0.0006   -0.0002   -0.0027
  S   C   22   -0.0601   -0.0244    0.0539   -0.0243   -0.0327   -0.0884    0.0033   -0.0036
  Px  C   22   -0.0736   -0.0366    0.0583   -0.0309   -0.0406    0.4934   -0.0179    0.0396
  Py  C   22   -0.0945   -0.0376   -0.0664    0.0305    0.0442   -0.0944    0.0042   -0.1124
  Pz  C   22    0.0162    0.0084   -0.0033    0.0019    0.0020   -0.0775    0.0028   -0.0036
  S   C   23    0.0576    0.0176    0.0547   -0.0247   -0.0313    0.1325   -0.0050    0.0576
  Px  C   23    0.1193    0.0500   -0.0137    0.0072    0.0250   -0.2206    0.0072   -0.0903
  Py  C   23    0.0114    0.0039    0.0629   -0.0289   -0.0291   -0.4588    0.0168   -0.1647
  Pz  C   23   -0.0024   -0.0014   -0.0041    0.0023    0.0043   -0.0031    0.0001   -0.0027
  S   C   24    0.1181    0.0465   -0.0132    0.0027   -0.0060   -0.0579    0.0021   -0.0023
  Px  C   24   -0.0524   -0.0166   -0.0735    0.0365    0.0616   -0.2142    0.0075   -0.1081
  Py  C   24    0.1978    0.1452   -0.2542    0.1258    0.1704    0.2522   -0.0108   -0.0304
  Pz  C   24   -0.0183   -0.0087    0.0152   -0.0084   -0.0151   -0.0117    0.0006    0.0042
  S   H   25    0.2083    0.1216    0.2079   -0.1077   -0.1442    0.1249   -0.0060   -0.1388
  S   H   26    0.0988    0.0471   -0.0513    0.0250    0.0304   -0.3171    0.0113   -0.0294
  S   H   27   -0.0951   -0.0383   -0.0382    0.0161    0.0062    0.3009   -0.0106    0.1149
  S   H   28   -0.2158   -0.1231    0.1533   -0.0746   -0.0923   -0.1991    0.0081   -0.0150
  S   C   29   -0.1368   -0.1017   -0.2047    0.1108    0.1893    0.0174   -0.0010    0.0052
  Px  C   29    0.0991    0.0502   -0.0368    0.0299    0.0835   -0.0865    0.0070    0.2273
  Py  C   29   -0.1474   -0.1639    0.0961   -0.0436   -0.1249   -0.0333   -0.0008    0.1523
  Pz  C   29    0.0040    0.0055    0.0093   -0.0055   -0.0064   -0.0010    0.0001   -0.0043
  S   C   30    0.1752    0.1443   -0.2033    0.1009    0.1760   -0.0036    0.0010   -0.0137
  Px  C   30    0.0697    0.0958    0.0384   -0.0236   -0.0477    0.0811   -0.0031   -0.1272
  Py  C   30   -0.1305   -0.0914   -0.0961    0.0634    0.1504    0.0668   -0.0052   -0.0476
  Pz  C   30   -0.0004   -0.0066    0.0110   -0.0031    0.0062   -0.0009   -0.0000   -0.0001


   Root No.      73        74        75        76        77        78        79        80

                73 A      74 A      75 A      76 A      77 A      78 A      79 A      80 A   

                 9.387     9.604    10.069    10.751    11.033    11.664    11.792    12.189
  
  S   C    1   -0.0689   -0.0517    0.0732   -0.0510    0.0545    0.0217    0.0133   -0.0191
  Px  C    1   -0.1888   -0.1855   -0.0316   -0.2397   -0.1255   -0.1781    0.0713   -0.2246
  Py  C    1   -0.1159   -0.0458    0.2333    0.0192    0.2142    0.1616   -0.0160    0.1015
  Pz  C    1   -0.0083   -0.0071    0.0037   -0.0088   -0.0003   -0.0036    0.0032   -0.0075
  S   C    2    0.0745    0.0766    0.0657    0.0615    0.0820    0.0593    0.0201    0.0095
  Px  C    2   -0.1897   -0.1808    0.0423   -0.2397   -0.0331   -0.1191    0.1042   -0.2425
  Py  C    2    0.1772    0.1684    0.2080    0.0250    0.1871    0.0738    0.1308   -0.1258
  Pz  C    2   -0.0169   -0.0161   -0.0065   -0.0138   -0.0097   -0.0099    0.0008   -0.0084
  S   C    3    0.0308    0.0395   -0.0054    0.0665    0.0259    0.0286    0.0013    0.0163
  Px  C    3    0.1096    0.1515    0.2635    0.0051    0.0241   -0.1032   -0.2233    0.0572
  Py  C    3    0.0470    0.0307    0.1508   -0.0414    0.2409    0.1204    0.3530   -0.2933
  Pz  C    3    0.0026    0.0032    0.0049    0.0009    0.0011   -0.0006   -0.0042    0.0015
  S   C    4    0.0200    0.0431   -0.0030    0.0568   -0.0308   -0.0248    0.0043   -0.0113
  Px  C    4    0.2075    0.0697   -0.2389   -0.1545   -0.1675   -0.0506   -0.1588    0.1132
  Py  C    4    0.1600    0.0856   -0.1491   -0.0035    0.1251    0.1533    0.3958   -0.2585
  Pz  C    4    0.0112    0.0053   -0.0120   -0.0039   -0.0030    0.0019    0.0058   -0.0039
  S   C    5    0.1043    0.0774   -0.0852    0.0099   -0.0942   -0.0626   -0.0238   -0.0098
  Px  C    5    0.1240    0.0101   -0.1540   -0.1799   -0.0774    0.0014   -0.1421    0.1268
  Py  C    5   -0.2995   -0.2456    0.1477   -0.1224    0.1789    0.1384   -0.0012    0.0772
  Pz  C    5    0.0002   -0.0012   -0.0015   -0.0044   -0.0002    0.0009   -0.0031    0.0035
  S   C    6   -0.0453   -0.0625   -0.0411   -0.0800   -0.0271   -0.0188   -0.0053   -0.0108
  Px  C    6   -0.1550   -0.2067   -0.1257   -0.2029   -0.0596   -0.0359   -0.0085   -0.0262
  Py  C    6   -0.1372   -0.1082    0.2044   -0.0517    0.2672    0.2376   -0.0536    0.1846
  Pz  C    6   -0.0110   -0.0134   -0.0039   -0.0114    0.0007    0.0017   -0.0017    0.0019
  S   C    7   -0.0397   -0.0370   -0.0998    0.0682    0.0309    0.0868    0.0333    0.0052
  Px  C    7    0.0990    0.1393    0.1606    0.0716    0.0443   -0.0152   -0.2080    0.0785
  Py  C    7   -0.1055   -0.0399   -0.1787    0.2226    0.0891    0.1949   -0.0447    0.0282
  Pz  C    7   -0.0005    0.0010   -0.0018    0.0051    0.0021    0.0040   -0.0033    0.0018
  S   C    8   -0.0974   -0.0067    0.0689    0.0749   -0.0569   -0.0797   -0.0311    0.0205
  Px  C    8   -0.1428    0.1099   -0.0206    0.1844   -0.1517   -0.1497    0.1879   -0.1049
  Py  C    8    0.3072    0.0729   -0.1893   -0.1226    0.0747    0.1211    0.1694   -0.1229
  Pz  C    8    0.0051    0.0068   -0.0083    0.0017   -0.0031   -0.0004    0.0129   -0.0078
  S   C    9    0.0060   -0.0391    0.0405    0.0037   -0.0037   -0.0292   -0.0177    0.0070
  Px  C    9   -0.2073    0.0987    0.0344    0.2303   -0.2238   -0.2093    0.1444   -0.0840
  Py  C    9   -0.1224    0.0025   -0.1286    0.0863   -0.1410    0.3869   -0.1712   -0.0359
  Pz  C    9   -0.0073    0.0025   -0.0039    0.0080   -0.0097    0.0117   -0.0060   -0.0042
  S   C   10    0.0032   -0.0395   -0.0312   -0.0184   -0.0006    0.0207    0.0184    0.0143
  Px  C   10   -0.0302   -0.0374   -0.0015    0.2764    0.1692   -0.2042    0.1022    0.0767
  Py  C   10   -0.0346    0.0296   -0.1559    0.1300    0.0656    0.3977   -0.1924    0.0325
  Pz  C   10   -0.0028   -0.0036   -0.0080    0.0163    0.0094    0.0048    0.0004    0.0064
  S   C   11    0.0180   -0.0312   -0.0476   -0.0907   -0.0314    0.0689    0.0243    0.0302
  Px  C   11   -0.0177   -0.0708   -0.0431    0.2072    0.1249   -0.1505    0.1396    0.1173
  Py  C   11    0.0731   -0.1461   -0.1344   -0.1290   -0.0192    0.0937    0.1242    0.1573
  Pz  C   11   -0.0026   -0.0011    0.0020    0.0191    0.0114   -0.0156    0.0047    0.0032
  S   H   12    0.0389   -0.0536   -0.0593   -0.1079   -0.0469    0.0942    0.0298    0.0513
  S   C   13    0.0908   -0.0653    0.0805   -0.0550    0.0438   -0.0582   -0.0433   -0.0111
  Px  C   13    0.1113   -0.1654    0.1463    0.0508   -0.0981    0.0297   -0.1744   -0.1287
  Py  C   13   -0.2625    0.1175   -0.1385    0.1813   -0.1624    0.1668   -0.0096   -0.0144
  Pz  C   13   -0.0323    0.0173   -0.0201    0.0166   -0.0147    0.0179    0.0052    0.0024
  S   H   14   -0.0784   -0.0556   -0.1296    0.0817    0.0363    0.1073    0.0358   -0.0131
  S   H   15   -0.1158   -0.0818    0.0988   -0.0669    0.0599    0.0198    0.0159   -0.0217
  S   H   16    0.1393    0.1316    0.0966    0.0730    0.1075    0.0728    0.0437   -0.0017
  S   H   17    0.1845    0.1226   -0.1193    0.0070   -0.1157   -0.0736   -0.0443   -0.0003
  S   H   18   -0.0949   -0.1283   -0.0779   -0.1226   -0.0377   -0.0235   -0.0070   -0.0158
  S   H   19   -0.1923   -0.0007    0.0844    0.1025   -0.0797   -0.1068   -0.0311    0.0310
  S   H   20    0.1643   -0.0983    0.1074   -0.0718    0.0647   -0.0906   -0.0386   -0.0298
  S   C   21   -0.0447    0.1025    0.0626   -0.0494   -0.0798    0.0541    0.0189   -0.0139
  Px  C   21    0.0245   -0.0456   -0.1280   -0.1679    0.1358    0.0166   -0.1261   -0.1541
  Py  C   21   -0.1558    0.3359    0.1231   -0.2087   -0.1331    0.1333   -0.0009   -0.0931
  Pz  C   21    0.0038   -0.0093    0.0008    0.0162    0.0012   -0.0085    0.0062    0.0125
  S   C   22    0.0459   -0.0862    0.0274    0.0869   -0.0481    0.0121    0.0120   -0.0096
  Px  C   22   -0.1475    0.2430   -0.0921   -0.1965    0.1202   -0.0338   -0.0206    0.0339
  Py  C   22   -0.0446    0.1513    0.1550   -0.1545   -0.2267    0.2208   -0.0305   -0.2136
  Pz  C   22    0.0246   -0.0427    0.0112    0.0350   -0.0147    0.0010    0.0044   -0.0003
  S   C   23    0.0128   -0.0572   -0.0529    0.0641    0.0341   -0.0210   -0.0060   -0.0167
  Px  C   23   -0.0842    0.2077   -0.0239   -0.2071    0.1911   -0.1600    0.0228    0.2492
  Py  C   23    0.0110    0.0613    0.1783   -0.0492   -0.2032    0.1482   -0.0012   -0.1183
  Pz  C   23    0.0028   -0.0030    0.0068    0.0022   -0.0117    0.0094   -0.0009   -0.0109
  S   C   24   -0.0559    0.0868   -0.0619   -0.0335    0.1065   -0.0621   -0.0289    0.0081
  Px  C   24   -0.0727    0.2035    0.0385   -0.2311    0.0939   -0.0981    0.0548    0.2658
  Py  C   24    0.1839   -0.2213    0.1937   -0.0277   -0.2167    0.0911    0.1179    0.1411
  Pz  C   24   -0.0090    0.0080   -0.0107    0.0055    0.0084   -0.0026   -0.0056   -0.0093
  S   H   25   -0.0847    0.1800    0.1018   -0.0530   -0.1111    0.0656    0.0401    0.0011
  S   H   26    0.0887   -0.1442    0.0572    0.1148   -0.0714    0.0197    0.0142   -0.0167
  S   H   27    0.0224   -0.1030   -0.0815    0.0965    0.0374   -0.0212   -0.0090   -0.0239
  S   H   28   -0.1124    0.1654   -0.0848   -0.0474    0.1319   -0.0716   -0.0455    0.0005
  S   C   29   -0.0178    0.0533    0.0140   -0.0670   -0.0358    0.0343    0.0154    0.0048
  Px  C   29    0.0519   -0.1277   -0.2036   -0.1120    0.2234   -0.0339   -0.1449   -0.1407
  Py  C   29    0.0201   -0.1014   -0.0993   -0.0306   -0.1064    0.1060    0.3259    0.3325
  Pz  C   29   -0.0009    0.0014    0.0036    0.0051   -0.0040    0.0015   -0.0004   -0.0001
  S   C   30   -0.0059    0.0380   -0.0033   -0.0532    0.0455   -0.0240   -0.0085    0.0107
  Px  C   30    0.1863   -0.2008    0.2333   -0.0171   -0.0517   -0.0420   -0.1969   -0.1179
  Py  C   30    0.0845   -0.0512    0.1550   -0.1137   -0.2454    0.1141    0.3049    0.3670
  Pz  C   30   -0.0015    0.0020   -0.0049    0.0032    0.0073   -0.0035   -0.0050   -0.0076


   Root No.      81        82        83        84

                81 A      82 A      83 A      84 A   

                12.664    12.758    13.227    14.564
  
  S   C    1   -0.0577    0.0292    0.0100    0.0427
  Px  C    1   -0.2303   -0.1172    0.1981    0.1045
  Py  C    1    0.0155    0.1483   -0.1098    0.0281
  Pz  C    1   -0.0091   -0.0023    0.0061    0.0048
  S   C    2    0.0009    0.0182   -0.0126    0.0252
  Px  C    2   -0.2745   -0.0940    0.2026    0.1520
  Py  C    2   -0.1406   -0.0089    0.0621    0.1211
  Pz  C    2   -0.0092   -0.0046    0.0082    0.0035
  S   C    3    0.0148   -0.0065    0.0118    0.0230
  Px  C    3   -0.2526    0.0555    0.2647    0.2520
  Py  C    3   -0.1367   -0.0941    0.0238    0.0909
  Pz  C    3   -0.0037    0.0009    0.0038    0.0040
  S   C    4    0.0148   -0.0251    0.0009    0.0158
  Px  C    4   -0.1539    0.3084   -0.1382    0.2296
  Py  C    4   -0.0590    0.0247   -0.1938    0.1112
  Pz  C    4   -0.0064    0.0099   -0.0098    0.0109
  S   C    5   -0.0185   -0.0072    0.0162    0.0288
  Px  C    5   -0.1512    0.3342   -0.1501    0.2036
  Py  C    5   -0.0398    0.2023   -0.1346    0.0650
  Pz  C    5   -0.0035    0.0093   -0.0047    0.0053
  S   C    6   -0.0537    0.0472   -0.0102    0.0443
  Px  C    6   -0.1168    0.0978   -0.0184    0.0888
  Py  C    6   -0.0064    0.3171   -0.2231    0.0805
  Pz  C    6   -0.0054    0.0092   -0.0040    0.0048
  S   C    7    0.0487   -0.0418   -0.0067    0.0053
  Px  C    7   -0.2150    0.0253    0.2685    0.2665
  Py  C    7   -0.0351   -0.0967    0.1292    0.1528
  Pz  C    7   -0.0036   -0.0014    0.0064    0.0077
  S   C    8    0.0527   -0.0280    0.0028    0.0083
  Px  C    8    0.0141    0.1380   -0.2415    0.2547
  Py  C    8   -0.1124    0.0987   -0.1280    0.1118
  Pz  C    8   -0.0037    0.0085   -0.0130    0.0121
  S   C    9    0.0440   -0.0434   -0.0059    0.0033
  Px  C    9    0.0631    0.0839   -0.2480    0.2717
  Py  C    9   -0.1108   -0.2349   -0.0852    0.1349
  Pz  C    9   -0.0045   -0.0078   -0.0094    0.0112
  S   C   10    0.0588   -0.0155   -0.0065   -0.0093
  Px  C   10    0.1177    0.0972    0.2025    0.2736
  Py  C   10   -0.1714   -0.1795    0.1604    0.1454
  Pz  C   10    0.0041   -0.0018    0.0151    0.0169
  S   C   11    0.0464   -0.0257    0.0083   -0.0120
  Px  C   11    0.1900    0.0804    0.2111    0.2653
  Py  C   11    0.1663   -0.0309    0.1380    0.1206
  Pz  C   11    0.0064    0.0063    0.0101    0.0140
  S   H   12    0.0211   -0.0344    0.0169   -0.0067
  S   C   13    0.0524   -0.0393   -0.0204   -0.0038
  Px  C   13    0.0996   -0.2452   -0.2636    0.2577
  Py  C   13   -0.0692   -0.0843   -0.0906    0.1459
  Pz  C   13   -0.0084   -0.0013   -0.0008    0.0072
  S   H   14    0.0274   -0.0525   -0.0070    0.0033
  S   H   15   -0.0596    0.0322    0.0068    0.0396
  S   H   16    0.0048    0.0180   -0.0250    0.0144
  S   H   17   -0.0192   -0.0101    0.0278    0.0180
  S   H   18   -0.0668    0.0513   -0.0056    0.0459
  S   H   19    0.0496    0.0030   -0.0044    0.0155
  S   H   20    0.0542   -0.0073   -0.0190   -0.0095
  S   C   21    0.0114    0.0300    0.0198   -0.0223
  Px  C   21    0.3578    0.0081    0.0894    0.1730
  Py  C   21    0.2076    0.0777    0.1037    0.0506
  Pz  C   21   -0.0258   -0.0048   -0.0092   -0.0097
  S   C   22   -0.0671    0.0325   -0.0027   -0.0403
  Px  C   22    0.1224   -0.0752   -0.0024    0.0757
  Py  C   22    0.2993    0.1745    0.1733    0.0599
  Pz  C   22   -0.0250    0.0077   -0.0031   -0.0120
  S   C   23   -0.0431    0.0357    0.0096   -0.0349
  Px  C   23   -0.0307   -0.3012   -0.1700    0.1012
  Py  C   23    0.1332    0.1065    0.0897    0.0192
  Pz  C   23    0.0060    0.0115    0.0075   -0.0022
  S   C   24   -0.0232   -0.0208   -0.0209   -0.0215
  Px  C   24    0.0061   -0.3148   -0.1636    0.1378
  Py  C   24    0.0554   -0.1096   -0.0232    0.1073
  Pz  C   24   -0.0035    0.0089    0.0030   -0.0066
  S   H   25    0.0066    0.0359    0.0298   -0.0171
  S   H   26   -0.0675    0.0419    0.0027   -0.0390
  S   H   27   -0.0551    0.0418    0.0076   -0.0375
  S   H   28   -0.0209   -0.0337   -0.0341   -0.0096
  S   C   29    0.0008    0.0028   -0.0030   -0.0327
  Px  C   29    0.3550   -0.0136    0.0879    0.2114
  Py  C   29    0.0973    0.0152    0.2215    0.1182
  Pz  C   29   -0.0087   -0.0003   -0.0030   -0.0036
  S   C   30    0.0032    0.0002    0.0123   -0.0293
  Px  C   30    0.1349   -0.2582   -0.2569    0.2257
  Py  C   30   -0.0104   -0.1249    0.0431    0.0850
  Pz  C   30   -0.0011    0.0069    0.0028   -0.0043


              NET ATOMIC CHARGES AND DIPOLE CONTRIBUTIONS

  ATOM NO.   TYPE          CHARGE      No. of ELECS.   s-Pop       p-Pop       
    1          C          -0.028907        4.0289     1.10411     2.92480
    2          C          -0.029290        4.0293     1.09977     2.92952
    3          C           0.010920        3.9891     1.06352     2.92556
    4          C           0.014735        3.9853     1.06173     2.92353
    5          C          -0.021452        4.0215     1.08252     2.93893
    6          C          -0.026943        4.0269     1.08797     2.93897
    7          C          -0.024558        4.0246     1.09016     2.93440
    8          C          -0.040823        4.0408     1.10304     2.93778
    9          C           0.009032        3.9910     1.07358     2.91739
   10          C           0.012824        3.9872     1.06321     2.92396
   11          C          -0.036826        4.0368     1.10346     2.93336
   12          H           0.020275        0.9797     0.97973
   13          C          -0.039541        4.0395     1.09927     2.94027
   14          H           0.023540        0.9765     0.97646
   15          H           0.021409        0.9786     0.97859
   16          H           0.020477        0.9795     0.97952
   17          H           0.017880        0.9821     0.98212
   18          H           0.025819        0.9742     0.97418
   19          H           0.032323        0.9677     0.96768
   20          H           0.019613        0.9804     0.98039
   21          C          -0.025749        4.0257     1.09495     2.93080
   22          C          -0.023694        4.0237     1.08677     2.93693
   23          C          -0.023661        4.0237     1.09850     2.92516
   24          C          -0.034219        4.0342     1.10240     2.93181
   25          H           0.021217        0.9788     0.97878
   26          H           0.032821        0.9672     0.96718
   27          H           0.013111        0.9869     0.98689
   28          H           0.033701        0.9663     0.96630
   29          C           0.010580        3.9894     1.06797     2.92145
   30          C           0.015384        3.9846     1.05996     2.92466
 DIPOLE           X         Y         Z       TOTAL
 POINT-CHG.     0.095     0.063    -0.047     0.123
 HYBRID        -0.048    -0.078    -0.142     0.169
 SUM            0.047    -0.015    -0.189     0.196


          ATOMIC ORBITAL ELECTRON POPULATIONS

     Atom    s        px        py        pz   
    1  C   1.10411   0.97201   0.95261   1.00018
    2  C   1.09977   0.97186   0.95041   1.00725
    3  C   1.06352   0.97005   0.96775   0.98776
    4  C   1.06173   0.97332   0.97266   0.97755
    5  C   1.08252   0.97550   0.95499   1.00843
    6  C   1.08797   0.94875   0.99431   0.99591
    7  C   1.09016   0.97195   0.95270   1.00975
    8  C   1.10304   0.95713   0.95851   1.02214
    9  C   1.07358   0.96001   0.97230   0.98507
   10  C   1.06321   0.96698   0.97249   0.98450
   11  C   1.10346   0.96441   0.95018   1.01878
   12  H   0.97973
   13  C   1.09927   0.97429   0.94905   1.01693
   14  H   0.97646
   15  H   0.97859
   16  H   0.97952
   17  H   0.98212
   18  H   0.97418
   19  H   0.96768
   20  H   0.98039
   21  C   1.09495   0.96102   0.96290   1.00687
   22  C   1.08677   0.94676   0.99973   0.99043
   23  C   1.09850   0.96683   0.96015   0.99818
   24  C   1.10240   0.96800   0.95469   1.00913
   25  H   0.97878
   26  H   0.96718
   27  H   0.98689
   28  H   0.96630
   29  C   1.06797   0.95611   0.97851   0.98683
   30  C   1.05996   0.97751   0.96983   0.97732

 **********************
 *                    *
 * JOB ENDED NORMALLY *
 *                    *
 **********************



 TOTAL JOB TIME:             0.77 SECONDS

 == MOPAC DONE ==


          MOPAC Job: "./tetraceneTraj/tetracene_2116.mop" ended normally on Feb 15, 2023, at 11:39.

rm: cannot remove ./tetraceneTraj/tetracene_2116.cim: No such file or directory
rm: cannot remove ./tetraceneTraj/tetracene_2116.end: No such file or directory
rm: cannot remove ./tetraceneTraj/tetracene_2116.log: No such file or directory
rm: cannot remove ./tetraceneTraj/tetracene_2116.temp: No such file or directory
rm: cannot remove ./tetraceneTraj/tetracene_2116.ple: No such file or directory
rm: cannot remove ./tetraceneTraj/tetracene_2116.sts: No such file or directory
