 *******************************************************************************
 ** Site#:    0         For non-commercial use only    Version 20.173L 64BITS **
 *******************************************************************************
 ** Cite this program as: MOPAC2016, Version: 20.173L, James J. P. Stewart,   **
 ** Stewart Computational Chemistry, web-site: HTTP://OpenMOPAC.net.          **
 *******************************************************************************
 **                                                                           **
 **                                MOPAC2016                                  **
 **                                                                           **
 *******************************************************************************

                              INDO CALCULATION RESULTS

 *******************************************************************************
 *  CALCULATION DONE:                                Wed Feb 15 11:36:50 2023  *
 *  INDO       - The INDO Hamiltonian to be used
 *
 *
 *
 *                 CHARGE ON SYSTEM = 0
 *
 *
 *
 *  C.I.=(N,M) - 3 DOUBLY FILLED LEVELS USED IN A C.I. INVOLVING 6 M.O.'S
 *  T=         - A TIME OF 172800.0 SECONDS REQUESTED
 *  DUMP=N     - RESTART FILE WRITTEN EVERY 7200.0 SECONDS REQUESTED
 *  RELSCF     - DEFAULT SCF CRITERION MULTIPLIED BY 0.0000
 *              (DEFAULT SCF CRITERION = 0.00010)
 *  ALLVEC     - PRINT ALL EIGENVECTORS
 **********
 *  WARNING: Specified print options may not behave as expected with INDO
 **********
 *******************************************************************************
INDO C.I.=(6,3) AllVEC CHARGE=0 RELSCF=0.000001


   ATOM   CHEMICAL          X               Y               Z
  NUMBER   SYMBOL      (ANGSTROMS)     (ANGSTROMS)     (ANGSTROMS)
 
     1       C         18.45285806  *  19.50703797  *  22.37876973  *
     2       C         19.85024793  *  19.44877150  *  22.41351086  *
     3       C         20.66810248  *  20.62456325  *  22.45986157  *
     4       C         19.96970863  *  21.92396696  *  22.47397024  *
     5       C         18.54103855  *  21.98242764  *  22.40062912  *
     6       C         17.77763171  *  20.82036949  *  22.27547915  *
     7       C         22.07349476  *  20.61933884  *  22.52756482  *
     8       C         20.70910849  *  23.14300383  *  22.57212026  *
     9       C         22.15114931  *  23.16442222  *  22.52961504  *
    10       C         22.87454200  *  21.85355723  *  22.53960239  *
    11       C         24.30108400  *  21.81981058  *  22.64622822  *
    12       H         24.79048559  *  20.81489404  *  22.61278388  *
    13       C         22.92389255  *  24.38697151  *  22.57822246  *
    14       H         22.62499734  *  19.62792653  *  22.58061617  *
    15       H         17.76369629  *  18.63525959  *  22.30170420  *
    16       H         20.39937441  *  18.49290593  *  22.27178633  *
    17       H         18.07356762  *  23.00101160  *  22.40160610  *
    18       H         16.66903366  *  20.84256375  *  22.14945990  *
    19       H         20.16094128  *  24.12029180  *  22.60677219  *
    20       H         22.41009648  *  25.36938227  *  22.40737294  *
    21       C         26.51165735  *  23.03163609  *  22.46939821  *
    22       C         27.18661382  *  24.26663701  *  22.49351547  *
    23       C         26.51313541  *  25.51389111  *  22.55978603  *
    24       C         25.14428920  *  25.54236629  *  22.64637639  *
    25       H         27.03704244  *  22.06640328  *  22.41269956  *
    26       H         28.26194046  *  24.28827206  *  22.38035523  *
    27       H         27.02643103  *  26.52196645  *  22.60126588  *
    28       H         24.55125999  *  26.47632306  *  22.55705205  *
    29       C         25.03394044  *  23.00606102  *  22.52089040  *
    30       C         24.33691896  *  24.32356447  *  22.57463946  *
 


          CARTESIAN COORDINATES 

    NO.       ATOM           X           Y           Z

     1         C         18.4529     19.5070     22.3788
     2         C         19.8502     19.4488     22.4135
     3         C         20.6681     20.6246     22.4599
     4         C         19.9697     21.9240     22.4740
     5         C         18.5410     21.9824     22.4006
     6         C         17.7776     20.8204     22.2755
     7         C         22.0735     20.6193     22.5276
     8         C         20.7091     23.1430     22.5721
     9         C         22.1511     23.1644     22.5296
    10         C         22.8745     21.8536     22.5396
    11         C         24.3011     21.8198     22.6462
    12         H         24.7905     20.8149     22.6128
    13         C         22.9239     24.3870     22.5782
    14         H         22.6250     19.6279     22.5806
    15         H         17.7637     18.6353     22.3017
    16         H         20.3994     18.4929     22.2718
    17         H         18.0736     23.0010     22.4016
    18         H         16.6690     20.8426     22.1495
    19         H         20.1609     24.1203     22.6068
    20         H         22.4101     25.3694     22.4074
    21         C         26.5117     23.0316     22.4694
    22         C         27.1866     24.2666     22.4935
    23         C         26.5131     25.5139     22.5598
    24         C         25.1443     25.5424     22.6464
    25         H         27.0370     22.0664     22.4127
    26         H         28.2619     24.2883     22.3804
    27         H         27.0264     26.5220     22.6013
    28         H         24.5513     26.4763     22.5571
    29         C         25.0339     23.0061     22.5209
    30         C         24.3369     24.3236     22.5746

           Empirical Formula: C18 H12  =    30 atoms



      MOLECULAR POINT GROUP   :   C1  


      RHF CALCULATION, NO. OF DOUBLY OCCUPIED LEVELS = 42

 WARNING: INDO only performs single-point calculations
  SCF CRITERION =    0.1000E-09

 Summary of symmetry occupancy in each shell:

 SHELL     
    1   42
    v   42
 TOTAL  84




    ROOT NO.    1           2           3           4           5           6

           -44.14019   -42.80810   -40.05670   -36.66560   -35.45166   -34.09097
  
  
  S  C   1   0.13398     0.21131    -0.23465     0.26840    -0.05351    -0.11574
 PX  C   1   0.03761     0.05356    -0.04265     0.01539    -0.04984    -0.08426
 PY  C   1   0.04885     0.07435    -0.07446     0.06851     0.02465     0.04122
 PZ  C   1  -0.00088    -0.00181     0.00318    -0.00584    -0.00056    -0.00035
  
  S  C   2   0.17075     0.23990    -0.19765     0.12977    -0.18679    -0.29080
 PX  C   2  -0.00425    -0.02350     0.06271    -0.11320    -0.05078    -0.04521
 PY  C   2   0.06855     0.09004    -0.05779     0.00813    -0.01969    -0.01995
 PZ  C   2  -0.00043    -0.00153     0.00352    -0.00609     0.00082     0.00283
  
  S  C   3   0.27979     0.29623    -0.05885    -0.16572    -0.20063    -0.22591
 PX  C   3  -0.00965    -0.06085     0.12966    -0.14168    -0.07422    -0.04511
 PY  C   3   0.05104     0.02664     0.05660    -0.10458     0.09018     0.13299
 PZ  C   3   0.00183    -0.00067     0.00650    -0.00973    -0.00147     0.00063
  
  S  C   4   0.28408     0.30089    -0.06097    -0.17294     0.16462     0.20922
 PX  C   4   0.03475    -0.01493     0.12149    -0.16608    -0.05445    -0.09022
 PY  C   4  -0.03222    -0.06136     0.07594    -0.06760     0.12214     0.13247
 PZ  C   4   0.00007    -0.00291     0.00789    -0.01037     0.00093    -0.00004
  
  S  C   5   0.17330     0.24203    -0.19685     0.12045     0.19726     0.29231
 PX  C   5   0.05385     0.05955    -0.00901    -0.06349     0.03667     0.04023
 PY  C   5  -0.04284    -0.07171     0.08663    -0.10153     0.02427     0.02843
 PZ  C   5   0.00041    -0.00066     0.00377    -0.00827     0.00123     0.00064
  
  S  C   6   0.13432     0.21166    -0.23476     0.26648     0.07906     0.11828
 PX  C   6   0.06140     0.09130    -0.08509     0.06437     0.01206     0.01327
 PY  C   6   0.00295     0.00136     0.00771    -0.02794     0.05220     0.09286
 PZ  C   6   0.00689     0.01055    -0.01060     0.00947     0.00328     0.00479
  
  S  C   7   0.22546     0.13219     0.15064    -0.23122    -0.30249    -0.18088
 PX  C   7  -0.03805    -0.07353     0.04025     0.08131    -0.00242     0.08304
 PY  C   7   0.06959     0.01583     0.08392    -0.06678     0.00201     0.04630
 PZ  C   7  -0.00160    -0.00296     0.00189     0.00281     0.00137     0.00436
  
  S  C   8   0.22864     0.13508     0.14964    -0.25225     0.28812     0.19177
 PX  C   8   0.03894    -0.02677     0.09454    -0.01922     0.00316    -0.08444
 PY  C   8  -0.06868    -0.06886    -0.01219     0.09915     0.01705    -0.04148
 PZ  C   8  -0.00642    -0.00566    -0.00174     0.00805    -0.00687    -0.00697
  
  S  C   9   0.30338    -0.00730     0.31399    -0.03781     0.21892    -0.00966
 PX  C   9   0.02678    -0.08390     0.03431     0.18617    -0.05564    -0.06281
 PY  C   9  -0.04489    -0.04388    -0.04052     0.09872     0.12568    -0.03978
 PZ  C   9   0.00373    -0.00132     0.00509     0.00177     0.00271    -0.00023
  
  S  C  10   0.30485    -0.01083     0.31937    -0.01102    -0.20457     0.01032
 PX  C  10  -0.01983    -0.08323    -0.01025     0.19488    -0.06588     0.06039
 PY  C  10   0.04700    -0.04547     0.04897     0.09085     0.12705     0.02271
 PZ  C  10   0.00275    -0.00226     0.00418     0.00496    -0.00332     0.00171
  
  S  C  11   0.23068    -0.13753     0.18531     0.23259    -0.29330     0.18834
 PX  C  11  -0.04237    -0.01935    -0.09329     0.00206     0.00568     0.06951
 PY  C  11   0.07063    -0.06886     0.02621     0.10106     0.01260     0.03673
 PZ  C  11  -0.01141     0.00706    -0.00961    -0.01300     0.01475    -0.01039
  
  S  H  12   0.06906    -0.03820     0.05511     0.06302    -0.14864     0.08837
  
  S  C  13   0.22717    -0.13839     0.16928     0.19409     0.31569    -0.20448
 PX  C  13   0.03718    -0.06985    -0.03085     0.08353    -0.00414    -0.07617
 PY  C  13  -0.07303     0.02003    -0.09373    -0.05426    -0.00542    -0.03786
 PZ  C  13  -0.00436     0.00232    -0.00380    -0.00359    -0.00901     0.00474
  
  S  H  14   0.06669     0.03692     0.04338    -0.05659    -0.14791    -0.08549
  
  S  H  15   0.03301     0.05477    -0.06886     0.09551    -0.01961    -0.04524
  
  S  H  16   0.05104     0.06937    -0.05246     0.02891    -0.09653    -0.14394
  
  S  H  17   0.05199     0.06955    -0.05046     0.02185     0.10095     0.14637
  
  S  H  18   0.03298     0.05454    -0.06814     0.09312     0.03165     0.05019
  
  S  H  19   0.06933     0.04049     0.04146    -0.06902     0.14831     0.09546
  
  S  H  20   0.06791    -0.04094     0.04526     0.04675     0.15305    -0.09792
  
  S  C  21   0.16049    -0.22914    -0.20192    -0.07703    -0.19240     0.28093
 PX  C  21  -0.04947     0.05512     0.00421    -0.05992     0.03370    -0.03111
 PY  C  21   0.04127    -0.07149    -0.09795    -0.08744     0.01717    -0.01439
 PZ  C  21   0.00382    -0.00516    -0.00347     0.00033    -0.00211     0.00226
  
  S  C  22   0.13792    -0.22362    -0.27690    -0.23251    -0.08498     0.13159
 PX  C  22  -0.05907     0.08976     0.09137     0.04774     0.00818    -0.00614
 PY  C  22  -0.00143    -0.00179    -0.01550    -0.03462     0.05162    -0.09011
 PZ  C  22   0.00150    -0.00227    -0.00222    -0.00106     0.00203    -0.00413
  
  S  C  23   0.13932    -0.22643    -0.28247    -0.24408     0.04739    -0.09942
 PX  C  23  -0.03614     0.05247     0.04526     0.01020    -0.05032     0.08449
 PY  C  23  -0.04916     0.07683     0.08535     0.05687     0.02908    -0.04889
 PZ  C  23   0.00016    -0.00024    -0.00021    -0.00001     0.00253    -0.00500
  
  S  C  24   0.16978    -0.24448    -0.22340    -0.11014     0.17767    -0.27015
 PX  C  24   0.00837    -0.03171    -0.08333    -0.10792    -0.05145     0.04672
 PY  C  24  -0.06355     0.08439     0.05585    -0.00267    -0.01343     0.01037
 PZ  C  24  -0.00768     0.01134     0.01106     0.00611    -0.00703     0.01029
  
  S  H  25   0.04751    -0.06541    -0.05182    -0.01169    -0.09488     0.13635
  
  S  H  26   0.03697    -0.06293    -0.08776    -0.08859    -0.03659     0.06033
  
  S  H  27   0.03501    -0.05961    -0.08335    -0.08609     0.02351    -0.04921
  
  S  H  28   0.05277    -0.07282    -0.05936    -0.02331     0.09792    -0.14152
  
  S  C  29   0.27415    -0.28569    -0.02432     0.19778    -0.17822     0.20723
 PX  C  29  -0.04343    -0.00593    -0.13578    -0.13904    -0.04393     0.08005
 PY  C  29   0.03016    -0.06066    -0.08623    -0.05779     0.11184    -0.10915
 PZ  C  29   0.00631    -0.00551     0.00323     0.00904    -0.00252     0.00170
  
  S  C  30   0.27682    -0.29253    -0.03927     0.17028     0.18697    -0.20843
 PX  C  30   0.00266    -0.05479    -0.14454    -0.11698    -0.08710     0.06408
 PY  C  30  -0.04897     0.02238    -0.07399    -0.09823     0.09527    -0.13141
 PZ  C  30  -0.00111     0.00084    -0.00049    -0.00059     0.00089    -0.00277




    ROOT NO.    7           8           9          10          11          12

           -31.54415   -31.25684   -28.60481   -28.22078   -26.68658   -25.93537
  
  
  S  C   1   0.11101     0.29246    -0.16858     0.27294     0.00288     0.21538
 PX  C   1   0.10158    -0.06627    -0.13285    -0.14739    -0.03599     0.06576
 PY  C   1  -0.06190     0.02101     0.10027    -0.01205     0.07713    -0.10273
 PZ  C   1   0.00154    -0.01172    -0.00232    -0.01585    -0.00040    -0.00084
  
  S  C   2   0.25626    -0.00007    -0.21908    -0.10942    -0.13139     0.03625
 PX  C   2  -0.00223    -0.14577     0.11337    -0.12490    -0.05628    -0.20665
 PY  C   2  -0.00088    -0.07246     0.05296    -0.09009     0.10277    -0.08469
 PZ  C   2  -0.00435    -0.00791     0.00841    -0.00555     0.00632    -0.00776
  
  S  C   3   0.10219    -0.22407     0.08652    -0.11884     0.10199    -0.16997
 PX  C   3  -0.06209     0.02232     0.15810     0.13768    -0.07705    -0.08179
 PY  C   3  -0.08262    -0.01921     0.01545     0.09646     0.19300     0.11548
 PZ  C   3  -0.00396    -0.00209     0.00683     0.00678     0.00261    -0.00059
  
  S  C   4  -0.04338    -0.24970    -0.11210    -0.09347     0.10013     0.18447
 PX  C   4   0.09730     0.02740    -0.03312     0.17313     0.11703    -0.02916
 PY  C   4  -0.01278     0.02296    -0.10601     0.08845    -0.17644     0.10435
 PZ  C   4   0.00473    -0.00016    -0.00806     0.01039    -0.00107     0.00623
  
  S  C   5  -0.24486    -0.08222     0.16357    -0.16487    -0.11319    -0.06393
 PX  C   5   0.03770    -0.13774    -0.15421    -0.10406     0.02765     0.20410
 PY  C   5   0.02025    -0.07477    -0.08320    -0.02552    -0.11634     0.09309
 PZ  C   5   0.00598    -0.01083    -0.01644    -0.00599    -0.00165     0.02044
  
  S  C   6  -0.17797     0.24455     0.25253     0.20523     0.03061    -0.20929
 PX  C   6  -0.00262    -0.02139    -0.03327    -0.08528     0.03731     0.05786
 PY  C   6  -0.09886    -0.10048     0.12133    -0.15628    -0.05595    -0.13765
 PZ  C   6  -0.00502     0.00108     0.00298    -0.00592     0.00353     0.00128
  
  S  C   7  -0.16487    -0.01005     0.26746     0.09743    -0.17203    -0.02901
 PX  C   7  -0.13563     0.12822    -0.03774     0.01835    -0.12282     0.18781
 PY  C   7  -0.07043     0.07705    -0.00143     0.09471     0.14412     0.11996
 PZ  C   7  -0.00576     0.00547    -0.00209     0.00084    -0.00432     0.00913
  
  S  C   8   0.15478     0.02881    -0.23213     0.15978    -0.17038     0.00302
 PX  C   8   0.10197     0.17016     0.04829     0.08531     0.07736    -0.18708
 PY  C   8   0.05722     0.08270     0.01130    -0.04100    -0.17007    -0.12708
 PZ  C   8  -0.00009     0.00472     0.00422    -0.00270    -0.00093    -0.00573
  
  S  C   9   0.19725     0.28200    -0.01871     0.00627     0.07954    -0.18113
 PX  C   9  -0.06624     0.00382     0.09164    -0.19585     0.11401     0.06131
 PY  C   9   0.13277    -0.01252     0.02751    -0.10844    -0.20349    -0.12603
 PZ  C   9   0.00332     0.00665    -0.00182    -0.00140     0.00086    -0.00446
  
  S  C  10  -0.25047     0.22572     0.02483    -0.00076     0.06388     0.18704
 PX  C  10  -0.07859    -0.02716    -0.12615    -0.16865    -0.11515     0.04985
 PY  C  10   0.13289     0.04234    -0.07944    -0.08697     0.21702    -0.09837
 PZ  C  10  -0.00685     0.00501    -0.00451    -0.00584    -0.00362     0.00748
  
  S  C  11  -0.18661    -0.01019    -0.23581    -0.09192    -0.16991    -0.00998
 PX  C  11   0.13544    -0.13648    -0.05279     0.09283    -0.05034    -0.19531
 PY  C  11   0.07628    -0.06450    -0.04609    -0.03380     0.18820    -0.10017
 PZ  C  11   0.00705     0.00122     0.01086     0.00499     0.00530     0.00296
  
  S  H  12  -0.09445    -0.00658    -0.09886    -0.00321    -0.20974    -0.00278
  
  S  C  13   0.17440     0.02844     0.20235    -0.15922    -0.18049    -0.00641
 PX  C  13  -0.09562    -0.15730     0.07227     0.00372     0.09729     0.20510
 PY  C  13  -0.05921    -0.09587     0.03923     0.08705    -0.15705     0.09996
 PZ  C  13  -0.00723    -0.00294    -0.00639     0.00564     0.01169     0.00447
  
  S  H  14  -0.08046    -0.00755     0.11302     0.00414    -0.20618    -0.02194
  
  S  H  15   0.04631     0.15551    -0.08130     0.19355    -0.02047     0.13254
  
  S  H  16   0.12145    -0.00497    -0.09784    -0.04452    -0.14275    -0.00069
  
  S  H  17  -0.11345    -0.04497     0.06817    -0.06804    -0.13490    -0.03197
  
  S  H  18  -0.08542     0.12869     0.14454     0.14854    -0.00708    -0.14171
  
  S  H  19   0.07267     0.00669    -0.11564     0.03071    -0.20671    -0.01208
  
  S  H  20   0.07766     0.00639     0.09479    -0.03309    -0.20937    -0.00815
  
  S  C  21   0.30018    -0.03106     0.17835     0.13134    -0.13691     0.01516
 PX  C  21   0.01569     0.13867     0.11608    -0.14483    -0.05842     0.17627
 PY  C  21   0.01699     0.07527     0.07690    -0.05226     0.09608     0.11331
 PZ  C  21  -0.00018    -0.00442    -0.00517     0.00487     0.00481    -0.00699
  
  S  C  22   0.15032     0.27394     0.17240    -0.26238     0.00099     0.19205
 PX  C  22   0.00568     0.03283     0.02773    -0.10325    -0.04990     0.06544
 PY  C  22  -0.14634     0.07801    -0.15145    -0.12362     0.07852    -0.10198
 PZ  C  22  -0.00795    -0.00208    -0.01116     0.00426     0.00588    -0.01263
  
  S  C  23  -0.20745     0.23889    -0.22552    -0.19882     0.03844    -0.18725
 PX  C  23   0.10458     0.09617     0.08402    -0.17724     0.02397     0.07316
 PY  C  23  -0.07625    -0.03441    -0.10058     0.01860    -0.06297    -0.11525
 PZ  C  23  -0.00912    -0.00272    -0.01173     0.00594    -0.00055    -0.01288
  
  S  C  24  -0.28108    -0.08468    -0.13911     0.16647    -0.10947    -0.02968
 PX  C  24  -0.05323     0.14098    -0.15701    -0.08226     0.08603    -0.19475
 PY  C  24  -0.03496     0.07407    -0.08317    -0.07196    -0.08576    -0.10159
 PZ  C  24   0.00972     0.00232     0.00355    -0.00643     0.00424     0.00020
  
  S  H  25   0.14023    -0.01515     0.07876     0.05227    -0.14246    -0.00182
  
  S  H  26   0.07652     0.15440     0.10197    -0.19357    -0.02840     0.13811
  
  S  H  27  -0.10983     0.12116    -0.13911    -0.13336    -0.00812    -0.13544
  
  S  H  28  -0.13427    -0.04776    -0.05611     0.07107    -0.13482    -0.00318
  
  S  C  29   0.10489    -0.23750    -0.10826     0.12931     0.11202    -0.17544
 PX  C  29   0.11226    -0.01341     0.06923     0.16669    -0.11844    -0.05720
 PY  C  29   0.02166    -0.03428     0.13262     0.06349     0.16255     0.11425
 PZ  C  29  -0.00385    -0.00669    -0.01035    -0.00275     0.00786    -0.00526
  
  S  C  30  -0.02836    -0.25334     0.13650     0.09012     0.09091     0.18214
 PX  C  30  -0.05584    -0.04614    -0.10439     0.17982     0.08379    -0.06082
 PY  C  30  -0.09356    -0.01097     0.04056     0.09100    -0.19927     0.10119
 PZ  C  30  -0.00487    -0.00252    -0.00195     0.00339    -0.00143     0.00410




    ROOT NO.   13          14          15          16          17          18

           -25.12872   -23.89525   -22.60759   -21.57340   -20.41936   -19.32778
  
  
  S  C   1   0.00142    -0.13276    -0.00340     0.17729    -0.01797     0.01462
 PX  C   1   0.02363     0.24742     0.00034    -0.02829     0.22689     0.14567
 PY  C   1  -0.13163     0.02015     0.17661    -0.10140    -0.13051     0.19020
 PZ  C   1  -0.00176     0.01805     0.00405    -0.00093     0.01338     0.01439
  
  S  C   2   0.16304     0.17346    -0.11702    -0.12085     0.11161    -0.01083
 PX  C   2   0.08166    -0.04572    -0.06045    -0.16608    -0.16325    -0.14175
 PY  C   2  -0.17506     0.01291     0.19432    -0.05784    -0.16289     0.09467
 PZ  C   2  -0.01078    -0.00406     0.01299     0.00009    -0.01392     0.00744
  
  S  C   3  -0.10966    -0.10849     0.02069    -0.08778    -0.08675    -0.12807
 PX  C   3   0.15052    -0.17041    -0.13877     0.10874     0.01711     0.00072
 PY  C   3  -0.20460    -0.08211     0.03191     0.10638     0.13956    -0.08180
 PZ  C   3  -0.00123    -0.01271    -0.00043     0.00760    -0.00361     0.00140
  
  S  C   4  -0.12258    -0.10251     0.01620     0.09644    -0.05260    -0.13748
 PX  C   4  -0.08295    -0.15583    -0.05571    -0.17332     0.08823    -0.08855
 PY  C   4   0.23457    -0.08945    -0.14142    -0.00024    -0.06000     0.02637
 PZ  C   4   0.00452    -0.01553    -0.00570    -0.00766    -0.00840    -0.00070
  
  S  C   5   0.15471     0.16774    -0.11382     0.10001     0.13421     0.00119
 PX  C   5  -0.08700    -0.02386     0.11256     0.18487    -0.18359     0.00026
 PY  C   5   0.16917    -0.05420    -0.16445     0.09386    -0.01332    -0.16909
 PZ  C   5  -0.00138    -0.00683     0.00499     0.01907    -0.02010    -0.00138
  
  S  C   6  -0.00461    -0.11729     0.00010    -0.17322    -0.05493     0.00229
 PX  C   6  -0.09292     0.14875     0.14428     0.11331     0.04117     0.25007
 PY  C   6   0.09077     0.19381    -0.09855    -0.08653     0.24355     0.00698
 PZ  C   6  -0.00848     0.01408     0.01493     0.01209     0.00397     0.03132
  
  S  C   7   0.13450    -0.09661     0.06620     0.22499    -0.02343     0.17446
 PX  C   7   0.02116     0.16504     0.15829     0.07914     0.02815     0.14863
 PY  C   7  -0.11485     0.09745    -0.04067    -0.00052     0.21390    -0.05147
 PZ  C   7  -0.00019     0.00595     0.01058     0.00263    -0.00458     0.00875
  
  S  C   8   0.12197    -0.10073     0.07285    -0.20311    -0.07988     0.16000
 PX  C   8  -0.09404     0.15789     0.06380    -0.09593     0.17822     0.06645
 PY  C   8   0.07303     0.07365     0.16691    -0.03793    -0.11176     0.15676
 PZ  C   8   0.00076     0.00462     0.00654    -0.00393    -0.00961     0.01142
  
  S  C   9  -0.00670     0.22283    -0.02838    -0.00393    -0.00075    -0.00300
 PX  C   9   0.00989     0.03387    -0.13423     0.19978    -0.14753    -0.14951
 PY  C   9  -0.00389    -0.08361     0.22202     0.11397    -0.10159    -0.06165
 PZ  C   9   0.00294     0.00623     0.00340    -0.00714    -0.01031     0.00860
  
  S  C  10   0.00786     0.24059    -0.04729     0.00289    -0.00660    -0.01967
 PX  C  10   0.00599    -0.05183     0.11264    -0.14535    -0.21697    -0.12708
 PY  C  10   0.00241     0.05993    -0.22179    -0.08743    -0.09570    -0.07807
 PZ  C  10   0.00183     0.00549     0.00910    -0.01214    -0.01488    -0.00542
  
  S  C  11  -0.12997    -0.10648     0.08855    -0.20932     0.02825    -0.14498
 PX  C  11  -0.09344    -0.16124    -0.03637     0.03495     0.21965     0.06405
 PY  C  11   0.07210    -0.08009    -0.17869     0.04344    -0.06627     0.14508
 PZ  C  11   0.00674     0.00461     0.00481    -0.00030     0.00025    -0.00064
  
  S  H  12  -0.13170    -0.05435     0.14074    -0.11311     0.11886    -0.14214
  
  S  C  13  -0.12930    -0.10325     0.08492     0.20628     0.07993    -0.16274
 PX  C  13   0.02428    -0.13340    -0.17258    -0.07896     0.03401     0.14641
 PY  C  13  -0.11040    -0.08218     0.05699    -0.05794     0.20636    -0.03528
 PZ  C  13   0.00812     0.00311    -0.01042    -0.01765    -0.01030     0.02118
  
  S  H  14   0.13720    -0.05184     0.10805     0.13134    -0.12757     0.16902
  
  S  H  15   0.05446    -0.17800    -0.09374     0.15804    -0.03894    -0.17438
  
  S  H  16   0.20752     0.06560    -0.18924    -0.07756     0.09800    -0.10942
  
  S  H  17   0.20190     0.05776    -0.18431     0.05117     0.10815    -0.10374
  
  S  H  18   0.05554    -0.15394    -0.09701    -0.16933    -0.05667    -0.18827
  
  S  H  19   0.13340    -0.05945     0.11027    -0.08676    -0.16291     0.15230
  
  S  H  20  -0.13618    -0.05972     0.12682     0.08965     0.15121    -0.15271
  
  S  C  21  -0.16826     0.17706    -0.13519     0.13441    -0.10934    -0.02380
 PX  C  21  -0.09318     0.01835    -0.14433    -0.13198    -0.21745     0.00050
 PY  C  21   0.16549     0.04257     0.16093    -0.09902    -0.06872    -0.15255
 PZ  C  21   0.00807    -0.00185     0.01222     0.00022     0.00961    -0.00899
  
  S  C  22   0.01420    -0.11803     0.01391    -0.16598     0.02763     0.00028
 PX  C  22  -0.10169    -0.14031    -0.16207    -0.11991     0.02613     0.25987
 PY  C  22   0.09051    -0.19416     0.11788     0.02781     0.26608     0.03233
 PZ  C  22   0.00880     0.00190     0.01415     0.01285     0.00815    -0.01843
  
  S  C  23  -0.00407    -0.12037    -0.00219     0.16637     0.06450    -0.00655
 PX  C  23   0.02660    -0.22290     0.01384    -0.01903     0.22711     0.15222
 PY  C  23  -0.14482    -0.00935    -0.21030     0.13447    -0.09795     0.19257
 PZ  C  23  -0.00380     0.00804    -0.00611     0.01242    -0.01383    -0.00354
  
  S  C  24  -0.14829     0.16011    -0.11638    -0.11620    -0.12641    -0.00380
 PX  C  24   0.07591     0.03563     0.05656     0.20483    -0.11582    -0.14396
 PY  C  24  -0.17728    -0.01568    -0.20977     0.08462    -0.11607     0.08948
 PZ  C  24   0.00395    -0.00721    -0.00028     0.00205     0.00238     0.00552
  
  S  H  25  -0.20841     0.07207    -0.20624     0.08124    -0.08606     0.07965
  
  S  H  26  -0.05478    -0.15447    -0.10024    -0.17057     0.03702     0.19773
  
  S  H  27  -0.07471    -0.13099    -0.12204     0.16274     0.04560     0.17755
  
  S  H  28  -0.20027     0.05859    -0.19297    -0.07987    -0.08425     0.09986
  
  S  C  29   0.10261    -0.10681     0.01457     0.07972     0.09277     0.14884
 PX  C  29  -0.08570     0.15165     0.06560     0.15146     0.12190    -0.08953
 PY  C  29   0.23720     0.09968     0.11937     0.04372    -0.09448     0.04703
 PZ  C  29   0.00614    -0.01471    -0.00005    -0.01607     0.00229     0.00614
  
  S  C  30   0.13000    -0.08997     0.01981    -0.09440     0.05053     0.14598
 PX  C  30   0.14611     0.15532     0.14539    -0.10617    -0.03201     0.00082
 PY  C  30  -0.18686     0.07621    -0.00585    -0.14938     0.11197    -0.09534
 PZ  C  30  -0.00245     0.00010    -0.00370    -0.01685     0.00133     0.00632




    ROOT NO.   19          20          21          22          23          24

           -18.32677   -17.26265   -16.87041   -16.63243   -16.05752   -15.22469
  
  
  S  C   1  -0.16184    -0.02510    -0.00441     0.11235    -0.04738     0.03878
 PX  C   1   0.09526    -0.19670     0.00362    -0.03398    -0.18018     0.15291
 PY  C   1   0.13633     0.18797    -0.04403    -0.05272    -0.18549     0.09877
 PZ  C   1  -0.00408    -0.01887     0.00033     0.01943    -0.02225     0.03615
  
  S  C   2   0.15486     0.01329    -0.02114    -0.05995     0.00157     0.04405
 PX  C   2   0.08276     0.23329    -0.01573    -0.04706     0.19004    -0.13671
 PY  C   2  -0.02527     0.08096    -0.10437     0.26437     0.03792     0.23096
 PZ  C   2  -0.01307    -0.00479    -0.00537     0.04171    -0.00924     0.05646
  
  S  C   3  -0.05649    -0.06553    -0.07433     0.20070     0.06931     0.01778
 PX  C   3  -0.17827    -0.02490     0.00856     0.03144    -0.23570    -0.09407
 PY  C   3  -0.03917    -0.26427     0.07033    -0.09058     0.02755    -0.09670
 PZ  C   3  -0.01285    -0.01539     0.00838     0.02056    -0.02434     0.04671
  
  S  C   4   0.05548     0.00028     0.08572    -0.20785     0.08279    -0.04242
 PX  C   4   0.14406    -0.22493     0.01618     0.02707    -0.09599     0.10955
 PY  C   4   0.09526     0.16665     0.01784    -0.10345    -0.19741     0.08628
 PZ  C   4   0.01345    -0.00643     0.00181     0.01725    -0.03023     0.05212
  
  S  C   5  -0.17196    -0.00886     0.02143     0.06679     0.02035    -0.03952
 PX  C   5  -0.03043     0.24157     0.01308    -0.16336     0.12261    -0.09707
 PY  C   5  -0.09768     0.03787    -0.09163     0.21826     0.14314     0.23873
 PZ  C   5  -0.01048     0.02222    -0.00502     0.01579    -0.00123     0.03219
  
  S  C   6   0.16856     0.02963     0.00600    -0.11702    -0.06332    -0.02159
 PX  C   6  -0.17069     0.03420     0.03524     0.05548    -0.22546    -0.12087
 PY  C   6   0.01138    -0.24379     0.06526    -0.03845    -0.03218    -0.10771
 PZ  C   6  -0.02741     0.00221     0.00389     0.02452    -0.04062     0.00537
  
  S  C   7  -0.08661    -0.03488     0.01781    -0.06244    -0.07946     0.00079
 PX  C   7   0.17475     0.02422     0.04305    -0.17508     0.17483     0.07567
 PY  C   7   0.10998    -0.08999    -0.20128     0.14513     0.06244    -0.04457
 PZ  C   7   0.00497    -0.00522     0.01806     0.00006    -0.00015     0.03915
  
  S  C   8   0.11296    -0.04411    -0.00235     0.04795    -0.09251     0.00061
 PX  C   8  -0.15673    -0.03704     0.14848    -0.03281     0.15514    -0.04259
 PY  C   8  -0.06830    -0.05297    -0.16769     0.25176     0.07706    -0.11693
 PZ  C   8  -0.00149    -0.00639    -0.00340     0.03249    -0.00843     0.02057
  
  S  C   9  -0.15441     0.14418     0.15819    -0.03897     0.09191     0.06236
 PX  C   9   0.01490     0.11598    -0.05474    -0.00847    -0.07186     0.07018
 PY  C   9  -0.05735    -0.21332     0.10028    -0.05983     0.12869     0.00438
 PZ  C   9  -0.00555    -0.00409     0.02545     0.02229    -0.00120     0.02414
  
  S  C  10   0.12650     0.10471    -0.21352     0.07054     0.05020    -0.06260
 PX  C  10   0.03703    -0.13666    -0.01946     0.03260     0.03383    -0.10265
 PY  C  10  -0.11171     0.21928     0.04741     0.01558    -0.12982     0.02567
 PZ  C  10   0.00385    -0.01184     0.01912     0.01638     0.00004     0.02254
  
  S  C  11  -0.09525    -0.05034     0.06469     0.02854    -0.07412    -0.00467
 PX  C  11  -0.16591     0.08104     0.15123    -0.05950    -0.10343     0.11749
 PY  C  11  -0.08511    -0.01528    -0.28542    -0.10342    -0.15097    -0.20196
 PZ  C  11  -0.00282    -0.00516     0.03396     0.01164    -0.00455     0.02545
  
  S  H  12  -0.04304     0.01460     0.31955     0.06688     0.03532     0.20023
  
  S  C  13   0.09054    -0.03810    -0.03448    -0.04593    -0.07446     0.02415
 PX  C  13   0.16641     0.05865     0.16284     0.13626    -0.15083     0.13178
 PY  C  13   0.09602     0.01449    -0.29562    -0.01636    -0.08431    -0.15236
 PZ  C  13  -0.00695     0.00756     0.04728     0.02851    -0.00502     0.02223
  
  S  H  14  -0.04857     0.05553     0.19260    -0.21941    -0.01470     0.07128
  
  S  H  15  -0.21188    -0.03440     0.02386     0.11031     0.20183    -0.13054
  
  S  H  16   0.12604     0.04834     0.06684    -0.25747     0.04861    -0.22087
  
  S  H  17  -0.14303    -0.06066    -0.07458     0.27324     0.07082     0.20962
  
  S  H  18   0.22292    -0.01598    -0.02610    -0.10915     0.16554     0.09206
  
  S  H  19   0.06622    -0.05348    -0.19972     0.23456    -0.05790    -0.06696
  
  S  H  20   0.04863    -0.03718    -0.31826    -0.09256    -0.04560    -0.15826
  
  S  C  21   0.14966     0.01243     0.01023     0.06641    -0.01012     0.01064
 PX  C  21  -0.01468    -0.19205     0.16998     0.08615    -0.13963    -0.16761
 PY  C  21  -0.10860    -0.14847    -0.13766    -0.17578    -0.10172     0.27914
 PZ  C  21  -0.00998     0.00337     0.00288    -0.00362    -0.02217     0.01663
  
  S  C  22  -0.14255    -0.00388    -0.05550    -0.08535    -0.04291     0.06207
 PX  C  22  -0.12693    -0.04719    -0.00200    -0.06321     0.24101    -0.08599
 PY  C  22   0.01136     0.26861     0.00295     0.07937     0.03564    -0.11902
 PZ  C  22   0.01247     0.01281     0.01417     0.01760    -0.03368    -0.00423
  
  S  C  23   0.15873     0.02487     0.05650     0.09298    -0.04935    -0.04609
 PX  C  23   0.08302     0.17194    -0.05854     0.06137     0.16038     0.08127
 PY  C  23   0.15439    -0.18148     0.01908     0.01540     0.18867     0.06194
 PZ  C  23   0.00987    -0.01595     0.02200     0.01245    -0.01756    -0.01215
  
  S  C  24  -0.17624     0.00495    -0.00805    -0.06234    -0.00032    -0.02412
 PX  C  24   0.10706    -0.16891     0.09509     0.01664    -0.17714    -0.08668
 PY  C  24  -0.03453    -0.12320    -0.17578    -0.18983    -0.00313     0.24476
 PZ  C  24   0.00445    -0.00014     0.02163     0.01570    -0.00905    -0.00726
  
  S  H  25   0.14453     0.03968     0.18597     0.20239     0.01212    -0.27903
  
  S  H  26  -0.17363    -0.03790    -0.02991    -0.09629     0.18971    -0.04592
  
  S  H  27   0.21985    -0.05467     0.01644     0.08088     0.18301     0.06471
  
  S  H  28  -0.15446    -0.00861    -0.18889    -0.18062     0.06970     0.20909
  
  S  C  29  -0.04563    -0.04363    -0.17904    -0.13112     0.08397     0.02094
 PX  C  29   0.10648     0.21461    -0.06845     0.00913     0.10435     0.16743
 PY  C  29   0.13700    -0.15071     0.07909     0.03658     0.23340     0.05094
 PZ  C  29  -0.02612    -0.01136     0.02467     0.00500    -0.03229    -0.00603
  
  S  C  30   0.08417    -0.02506     0.18396     0.12796     0.08683    -0.03189
 PX  C  30  -0.15940    -0.02530    -0.06005    -0.04216     0.21647    -0.16724
 PY  C  30  -0.07790     0.25741     0.03311     0.09185    -0.06124    -0.07643
 PZ  C  30  -0.01445     0.01345     0.03621     0.02426    -0.01649    -0.00722




    ROOT NO.   25          26          27          28          29          30

           -15.04187   -14.72789   -14.66942   -14.40403   -13.88436   -13.43869
  
  
  S  C   1   0.01742    -0.05032     0.00769    -0.01932    -0.04911    -0.01510
 PX  C   1  -0.26469    -0.01389    -0.04392    -0.04352    -0.08836    -0.12517
 PY  C   1   0.05474    -0.03133    -0.24515     0.07961    -0.13169    -0.08826
 PZ  C   1  -0.03405    -0.03499     0.05680     0.10465    -0.08971     0.20435
  
  S  C   2  -0.03711    -0.00338    -0.07161     0.04025     0.01283     0.01759
 PX  C   2   0.24199     0.02154    -0.00202     0.06253     0.11571     0.12909
 PY  C   2  -0.07639    -0.20790    -0.03907    -0.05531     0.09079     0.02772
 PZ  C   2  -0.04310    -0.05936     0.07433     0.13954    -0.09285     0.23520
  
  S  C   3  -0.00134     0.02225     0.03279    -0.02868    -0.01133    -0.00814
 PX  C   3   0.10914     0.14621    -0.05150     0.01568    -0.23910    -0.12972
 PY  C   3  -0.11231     0.11984     0.10693    -0.03982    -0.01530    -0.05700
 PZ  C   3  -0.04883    -0.04707     0.11443     0.23915    -0.13874     0.27144
  
  S  C   4  -0.06588    -0.00486     0.04107    -0.00314    -0.01140    -0.01354
 PX  C   4  -0.09056    -0.10200     0.06252    -0.09219    -0.12976    -0.02817
 PY  C   4   0.06564    -0.10033    -0.12016     0.01304    -0.17827    -0.04204
 PZ  C   4  -0.04548    -0.03805     0.10177     0.24357    -0.14090     0.27674
  
  S  C   5   0.09953    -0.02646     0.01573     0.00950     0.02016     0.02244
 PX  C   5   0.02207     0.09731    -0.09099     0.07442     0.11979    -0.02422
 PY  C   5  -0.09916    -0.18786    -0.18841     0.01968     0.05970    -0.07145
 PZ  C   5  -0.01718    -0.02784     0.04298     0.16351    -0.09198     0.22881
  
  S  C   6  -0.01003     0.05353    -0.02654     0.01437    -0.05267    -0.01980
 PX  C   6   0.28253     0.02634     0.03009    -0.02390    -0.13146    -0.00548
 PY  C   6  -0.04844     0.07627     0.23943    -0.08514     0.00499     0.06383
 PZ  C   6   0.03067    -0.02363     0.05425     0.11189    -0.10677     0.21188
  
  S  C   7  -0.07970     0.02196    -0.02289     0.00653     0.03135    -0.01690
 PX  C   7  -0.13846    -0.12663     0.00904    -0.01541     0.26140     0.10679
 PY  C   7   0.05303     0.25834    -0.22638     0.14376     0.07556     0.05259
 PZ  C   7  -0.04205    -0.05095     0.10791     0.21717    -0.06463     0.14378
  
  S  C   8   0.03277    -0.00559     0.06913    -0.03092     0.01215     0.03450
 PX  C   8   0.15415    -0.22009     0.04428    -0.00235     0.17108     0.02999
 PY  C   8  -0.03741     0.28654     0.05184    -0.00465     0.17225     0.02573
 PZ  C   8  -0.03692     0.01204     0.10261     0.22674    -0.05655     0.14315
  
  S  C   9  -0.00574    -0.02228    -0.00074    -0.02204    -0.00807    -0.02317
 PX  C   9  -0.18096     0.22529    -0.04789     0.00989    -0.17841    -0.04625
 PY  C   9  -0.13455     0.11810    -0.01074     0.00022    -0.09930    -0.06709
 PZ  C   9  -0.03704     0.00010     0.12988     0.28778    -0.01616     0.00791
  
  S  C  10   0.00346     0.02439    -0.00054     0.01374    -0.00668     0.01277
 PX  C  10   0.01930    -0.13706     0.22155    -0.12093    -0.21236    -0.10307
 PY  C  10   0.03518    -0.08944     0.10319    -0.06962    -0.11602    -0.04104
 PZ  C  10  -0.02454    -0.03346     0.13506     0.28387    -0.04017    -0.00226
  
  S  C  11   0.07164    -0.01589     0.00719     0.02286    -0.01277    -0.04086
 PX  C  11  -0.01217     0.11489    -0.21468     0.07901     0.21575     0.08457
 PY  C  11  -0.15503    -0.15572     0.09269     0.01150     0.17647    -0.01540
 PZ  C  11  -0.00706    -0.00680     0.07403     0.25066     0.02761    -0.12206
  
  S  H  12   0.14285     0.15371    -0.15416     0.02217    -0.06280     0.03243
  
  S  C  13  -0.01294     0.00197    -0.04716     0.04841    -0.00454     0.00997
 PX  C  13   0.09963     0.07704     0.10290    -0.06548     0.24599     0.12501
 PY  C  13   0.17379    -0.27881    -0.02913     0.04289     0.06042     0.03572
 PZ  C  13  -0.03447     0.02343     0.10611     0.23316     0.05289    -0.12185
  
  S  H  14  -0.13050    -0.24384     0.17022    -0.10626     0.06796     0.00707
  
  S  H  15   0.11028     0.00335     0.20256    -0.05103     0.13584     0.12102
  
  S  H  16   0.14921     0.16997    -0.00951     0.07267    -0.00032     0.01816
  
  S  H  17  -0.04217    -0.19189    -0.11384    -0.00805     0.01775    -0.03961
  
  S  H  18  -0.26234     0.00974    -0.04058     0.01517     0.11246    -0.02602
  
  S  H  19  -0.07873     0.30688     0.04737    -0.00728     0.06560     0.02805
  
  S  H  20   0.08973    -0.24130    -0.09361     0.04981    -0.06550    -0.00212
  
  S  C  21   0.03284    -0.00605     0.10373    -0.03360    -0.02122    -0.03180
 PX  C  21   0.02948    -0.11945    -0.08629     0.02301     0.13284    -0.00785
 PY  C  21   0.27072     0.04667     0.05235     0.02222     0.10645    -0.02768
 PZ  C  21  -0.00118    -0.00094     0.04752     0.17281     0.08996    -0.21024
  
  S  C  22  -0.00633     0.03678     0.00363     0.00423     0.05506     0.01266
 PX  C  22  -0.09947    -0.00567    -0.23473     0.09973    -0.13816     0.02378
 PY  C  22  -0.25327     0.03936     0.08317    -0.08252    -0.07274     0.04335
 PZ  C  22  -0.00893    -0.00740     0.05498     0.13301     0.09167    -0.20986
  
  S  C  23   0.01795    -0.03611     0.02394    -0.01723     0.03545     0.01447
 PX  C  23   0.07452     0.02652     0.26676    -0.07263    -0.09840    -0.16000
 PY  C  23   0.24705    -0.06126    -0.06568     0.07115    -0.08143    -0.08280
 PZ  C  23  -0.00267    -0.01405     0.01753     0.15447     0.08390    -0.21184
  
  S  C  24  -0.11637     0.03716    -0.03232     0.01937    -0.01626    -0.01555
 PX  C  24  -0.01453    -0.05473    -0.23581     0.07181     0.12858     0.15286
 PY  C  24   0.06981     0.11731     0.09648    -0.05032     0.06844     0.08128
 PZ  C  24  -0.01364    -0.00657     0.04580     0.17954     0.07984    -0.22718
  
  S  H  25  -0.17920    -0.08701    -0.03339    -0.03376    -0.04682     0.01423
  
  S  H  26  -0.09319     0.01442    -0.21661     0.08082    -0.11457     0.04880
  
  S  H  27   0.24306    -0.05638     0.07854     0.02125    -0.09267    -0.14477
  
  S  H  28   0.00592     0.12538     0.16837    -0.07553    -0.02429    -0.00268
  
  S  C  29  -0.00172    -0.02033    -0.03670     0.01815     0.01680     0.03149
 PX  C  29  -0.00028     0.12522     0.13352    -0.01664    -0.13990    -0.03585
 PY  C  29   0.12594     0.01123    -0.06034     0.00619    -0.20183    -0.01563
 PZ  C  29  -0.02148    -0.01819     0.06440     0.28205     0.11124    -0.24472
  
  S  C  30   0.05751    -0.00525    -0.03939     0.00242     0.00965     0.00281
 PX  C  30  -0.05380    -0.10422    -0.09998     0.04539    -0.24523    -0.13016
 PY  C  30  -0.09754    -0.00422     0.09476    -0.02848    -0.01441    -0.07351
 PZ  C  30  -0.03848    -0.00112     0.08993     0.27177     0.09358    -0.25892




    ROOT NO.   31          32          33          34          35          36

           -13.11178   -12.87236   -12.14893   -11.80375   -11.78377   -11.45235
  
  
  S  C   1  -0.01190     0.00972     0.00197    -0.00130    -0.00433     0.01430
 PX  C   1   0.16950    -0.12241    -0.07672     0.09799    -0.04724     0.07696
 PY  C   1  -0.20218    -0.15570     0.17535    -0.02200     0.11848     0.07210
 PZ  C   1   0.05325    -0.06175    -0.02276    -0.24056    -0.10852     0.12887
  
  S  C   2  -0.01585    -0.02160    -0.02106    -0.01531    -0.04035    -0.02740
 PX  C   2  -0.16565     0.12512     0.04774    -0.08880     0.01949    -0.10936
 PY  C   2   0.06988     0.15595    -0.18094     0.02477    -0.15980    -0.14053
 PZ  C   2   0.06796    -0.06017    -0.04726    -0.17688    -0.10517     0.09241
  
  S  C   3   0.00037     0.03298    -0.00495     0.01089    -0.00550     0.01184
 PX  C   3   0.05525    -0.15114    -0.08607     0.12753    -0.11678     0.14064
 PY  C   3  -0.01685    -0.10587     0.22844    -0.03638     0.25805     0.13097
 PZ  C   3   0.04941    -0.09895    -0.00626    -0.04871    -0.01424     0.04215
  
  S  C   4   0.01749    -0.01903     0.02051    -0.01660     0.01039    -0.00499
 PX  C   4  -0.16472     0.21236     0.14654    -0.13772     0.13039    -0.14573
 PY  C   4  -0.03021     0.10564    -0.18645     0.01720    -0.24651    -0.15044
 PZ  C   4   0.01318    -0.07677     0.04064    -0.08315    -0.00320     0.00426
  
  S  C   5  -0.02171    -0.01490    -0.02058     0.02383    -0.03390     0.02582
 PX  C   5   0.15895    -0.22491    -0.12243     0.13784    -0.10109     0.13418
 PY  C   5  -0.12895    -0.15469     0.14126     0.01716     0.11110     0.07981
 PZ  C   5   0.01248    -0.10377     0.04181    -0.19955    -0.04333     0.10745
  
  S  C   6  -0.00982    -0.00231     0.01102    -0.00724     0.00855    -0.01469
 PX  C   6  -0.20174     0.16940     0.08650    -0.04442     0.06887    -0.10529
 PY  C   6   0.17649     0.19984    -0.16606    -0.00612    -0.11672    -0.10507
 PZ  C   6  -0.01625    -0.03824     0.03751    -0.27138    -0.06494     0.10855
  
  S  C   7   0.01986    -0.06485    -0.00798     0.00664    -0.04849    -0.02821
 PX  C   7  -0.07008     0.10862     0.08586    -0.13387     0.08277    -0.15689
 PY  C   7  -0.14896    -0.07152    -0.06090    -0.01924    -0.19112    -0.13257
 PZ  C   7   0.00985    -0.03650    -0.00604     0.12261     0.07025    -0.05746
  
  S  C   8  -0.03164     0.06703    -0.01508     0.02016    -0.04942    -0.00068
 PX  C   8  -0.09650    -0.17942    -0.00337     0.13709    -0.10123     0.19618
 PY  C   8   0.14429    -0.08974     0.07154     0.00540     0.17344     0.13069
 PZ  C   8   0.00262    -0.04313     0.05014     0.11173     0.06764    -0.06809
  
  S  C   9   0.05000    -0.04736     0.00484    -0.01614    -0.00248     0.00470
 PX  C   9   0.12978     0.13466     0.02053    -0.14481     0.14147    -0.19628
 PY  C   9  -0.22964    -0.08707     0.07625    -0.04032    -0.25868    -0.12772
 PZ  C   9  -0.04795    -0.00037     0.03642     0.29258     0.07467    -0.14112
  
  S  C  10   0.01976     0.05981     0.00122    -0.00530    -0.01018     0.01151
 PX  C  10  -0.11247    -0.02058     0.07299     0.10724    -0.14001     0.20246
 PY  C  10   0.26499     0.07566    -0.02165     0.01692     0.26621     0.12078
 PZ  C  10  -0.04050     0.00630    -0.01876     0.30879     0.11127    -0.12857
  
  S  C  11   0.02278    -0.06222     0.01707     0.02920    -0.02938    -0.01216
 PX  C  11   0.12641    -0.03346    -0.04133    -0.12721     0.10459    -0.19647
 PY  C  11  -0.03649    -0.09759     0.15790    -0.01772    -0.13577    -0.11184
 PZ  C  11  -0.02720     0.05124    -0.07605     0.16045     0.11161    -0.08972
  
  S  H  12   0.09573     0.03897    -0.15900    -0.03654     0.17595     0.00880
  
  S  C  13  -0.04082     0.07582     0.02344     0.02629    -0.04506    -0.01697
 PX  C  13  -0.03698     0.04871     0.07168     0.11953    -0.05907     0.20830
 PY  C  13   0.13625     0.02925    -0.11253     0.05892     0.17146     0.11850
 PZ  C  13  -0.05645     0.04584     0.03576     0.15590    -0.00500    -0.06385
  
  S  H  14   0.09998     0.07825     0.09526    -0.04673     0.21653     0.02830
  
  S  H  15   0.05345     0.20394    -0.09608    -0.02624    -0.06411    -0.11133
  
  S  H  16  -0.14958    -0.07599     0.18476    -0.05437     0.15893     0.05073
  
  S  H  17  -0.18530    -0.04950     0.17940    -0.03702     0.14722     0.03025
  
  S  H  18   0.20107    -0.15871    -0.09244     0.07539    -0.06135     0.08810
  
  S  H  19   0.14568     0.04086     0.06386    -0.05401     0.20636     0.01667
  
  S  H  20   0.11523     0.03329    -0.13883    -0.01668     0.18004     0.01087
  
  S  C  21  -0.01027    -0.02118     0.02661     0.01564    -0.02493     0.02338
 PX  C  21   0.00152    -0.23111    -0.13989    -0.11992     0.08548    -0.17932
 PY  C  21   0.15725    -0.05720     0.14181    -0.02131    -0.05818    -0.07442
 PZ  C  21  -0.01307     0.08567    -0.07368    -0.18352    -0.01132     0.11275
  
  S  C  22  -0.02114    -0.00478    -0.01422    -0.01955     0.00029    -0.00304
 PX  C  22   0.06393     0.26654     0.09624     0.06675    -0.04549     0.13800
 PY  C  22  -0.21527     0.01954    -0.16063     0.03500     0.05985     0.07129
 PZ  C  22  -0.02934     0.06732    -0.09657    -0.28190    -0.03626     0.18691
  
  S  C  23  -0.00143    -0.03631    -0.00531     0.01458     0.00694    -0.00640
 PX  C  23  -0.02086    -0.22747    -0.08099    -0.12670     0.02861    -0.13309
 PY  C  23   0.24181     0.00413     0.18097    -0.00507    -0.06057    -0.06694
 PZ  C  23  -0.00336     0.11217    -0.04729    -0.27451    -0.07310     0.22412
  
  S  C  24  -0.02596     0.04154     0.02729    -0.02652    -0.03301    -0.00422
 PX  C  24   0.00687     0.20710     0.03556     0.11610    -0.01026     0.16358
 PY  C  24  -0.22273     0.01054    -0.24291     0.03726     0.10321     0.12063
 PZ  C  24  -0.01950     0.10323    -0.03460    -0.19506    -0.06493     0.15909
  
  S  H  25  -0.13326    -0.07550    -0.18432    -0.02530     0.09165    -0.01806
  
  S  H  26   0.05437     0.25298     0.09776     0.08827    -0.04038     0.12290
  
  S  H  27   0.20075    -0.12170     0.11820    -0.07056    -0.03804    -0.12840
  
  S  H  28  -0.19638    -0.08215    -0.22305    -0.02926     0.09627     0.00669
  
  S  C  29  -0.02049     0.02997    -0.00714    -0.00144    -0.00266    -0.00299
 PX  C  29   0.01811     0.21718     0.15766     0.11958    -0.09876     0.18356
 PY  C  29  -0.06239     0.04980    -0.26540     0.02212     0.17402     0.11097
 PZ  C  29  -0.03006     0.07459    -0.08260    -0.02216     0.04581    -0.03092
  
  S  C  30   0.02859    -0.04262    -0.00337     0.00091    -0.00044     0.00590
 PX  C  30   0.09556    -0.09072    -0.08154    -0.12734     0.09046    -0.19738
 PY  C  30   0.15267    -0.03743     0.31022    -0.01927    -0.17761    -0.10417
 PZ  C  30  -0.03771     0.09503    -0.00631    -0.02093    -0.03195     0.01289




    ROOT NO.   37          38          39          40          41          42

           -10.55965    -9.88167    -9.65351    -8.24114    -8.05520    -6.70513
  
  
  S  C   1  -0.00287     0.01567     0.00941     0.01146     0.01435    -0.00838
 PX  C   1   0.02950    -0.00515    -0.03737    -0.02660    -0.01194     0.01966
 PY  C   1  -0.02378     0.00309     0.02509     0.01643     0.00284    -0.00798
 PZ  C   1  -0.12226     0.31273     0.25072     0.23108     0.26842    -0.18187
  
  S  C   2  -0.01189    -0.00039     0.01669     0.01113     0.00203    -0.00727
 PX  C   2  -0.02074    -0.01123     0.02141     0.01065    -0.00013    -0.00768
 PY  C   2   0.04086    -0.00890    -0.04902    -0.03874     0.00470     0.02471
 PZ  C   2  -0.22486     0.04479     0.35740     0.32442    -0.00962    -0.23845
  
  S  C   3   0.00325     0.00416    -0.00811    -0.00539     0.00134     0.00522
 PX  C   3   0.01427     0.01459    -0.01652     0.00128     0.00774    -0.00275
 PY  C   3  -0.01447     0.01807     0.01757     0.01294     0.00301    -0.01046
 PZ  C   3  -0.21854    -0.31245     0.17804     0.01266    -0.33496     0.11867
  
  S  C   4  -0.00065     0.00864     0.00587     0.00610     0.00617    -0.00003
 PX  C   4  -0.02440     0.00630     0.02983     0.00763     0.01801     0.01033
 PY  C   4   0.00578    -0.00066    -0.00226    -0.00464     0.02045     0.01562
 PZ  C   4   0.22517    -0.17403    -0.28552    -0.06365    -0.33231    -0.15351
  
  S  C   5   0.00748    -0.00079    -0.01189    -0.00839    -0.00437     0.00464
 PX  C   5  -0.00378    -0.00731     0.01147     0.01838     0.00148    -0.01512
 PY  C   5  -0.01715    -0.01028     0.02231     0.02352    -0.00107    -0.01725
 PZ  C   5   0.20245     0.21845    -0.31074    -0.32304     0.00260     0.22808
  
  S  C   6  -0.00869    -0.01210     0.01027     0.00888    -0.00872    -0.00645
 PX  C   6  -0.02754    -0.06742     0.02894     0.03230    -0.04184    -0.02983
 PY  C   6   0.01799     0.00115    -0.01674    -0.01124     0.00243     0.00554
 PZ  C   6   0.07413     0.39474    -0.09975    -0.19090     0.27172     0.21393
  
  S  C   7  -0.00213    -0.00572    -0.00675    -0.00825     0.00689    -0.00201
 PX  C   7   0.00611     0.01025     0.00287     0.00764     0.00987    -0.02312
 PY  C   7  -0.02448    -0.02523     0.00237    -0.01311     0.00798     0.00658
 PZ  C   7  -0.30765    -0.28899     0.14335    -0.21639     0.00958     0.38829
  
  S  C   8   0.01080    -0.00753    -0.01647     0.00584    -0.00254    -0.01597
 PX  C   8   0.00628     0.00031    -0.01554     0.00501    -0.00859    -0.00853
 PY  C   8  -0.03247     0.01735     0.02493    -0.01317    -0.00115     0.02193
 PZ  C   8   0.34474    -0.15514    -0.23224     0.22095    -0.00358    -0.38349
  
  S  C   9  -0.01245    -0.00270    -0.00919    -0.01394    -0.01059    -0.00697
 PX  C   9   0.00014    -0.00531     0.01278     0.00107     0.01776    -0.00128
 PY  C   9  -0.03971    -0.02015    -0.02323    -0.00992    -0.00443    -0.01354
 PZ  C   9   0.28342    -0.02957     0.01191     0.26035     0.34980     0.00538
  
  S  C  10   0.00457     0.00419     0.00321     0.01494    -0.01898     0.01043
 PX  C  10   0.00133     0.00903    -0.02211     0.01952    -0.03990     0.00214
 PY  C  10   0.03083     0.01842     0.01374     0.00781     0.00163     0.00909
 PZ  C  10  -0.23880    -0.04357    -0.01994    -0.20442     0.39594     0.02811
  
  S  C  11  -0.03513     0.02044    -0.01968    -0.02506     0.00642    -0.04043
 PX  C  11   0.01853    -0.01623     0.02160    -0.00087     0.01295     0.00682
 PY  C  11  -0.04139     0.00236    -0.01792    -0.01397     0.00834    -0.02050
 PZ  C  11  -0.33044     0.23169    -0.16354    -0.21990     0.04194    -0.34967
  
  S  H  12   0.04520    -0.00404     0.02709     0.01071    -0.00091     0.02172
  
  S  C  13   0.02526     0.01510     0.02248     0.02052    -0.00241     0.03167
 PX  C  13  -0.03832     0.00221    -0.02603    -0.01722    -0.01309    -0.02249
 PY  C  13   0.05474     0.02331     0.03014     0.01371    -0.01057     0.02374
 PZ  C  13   0.32236     0.15614     0.26982     0.21385    -0.03148     0.36422
  
  S  H  14   0.01123     0.01290     0.00796     0.00521     0.00170    -0.00113
  
  S  H  15   0.01090    -0.01437    -0.01455    -0.01296    -0.00909     0.00723
  
  S  H  16  -0.02414    -0.00272     0.01932     0.00687    -0.00442    -0.00221
  
  S  H  17  -0.01315    -0.00656     0.01358     0.01196    -0.00351    -0.00945
  
  S  H  18   0.01868     0.01995    -0.01827    -0.01245     0.00974     0.00739
  
  S  H  19  -0.01614     0.00729     0.02121    -0.00528     0.00424     0.01013
  
  S  H  20   0.03323     0.00696     0.01345    -0.00305     0.00136    -0.00984
  
  S  C  21  -0.00927     0.00857    -0.00498    -0.00454    -0.01006    -0.00928
 PX  C  21   0.02184    -0.01497     0.01007     0.01109     0.01263     0.01627
 PY  C  21   0.00525    -0.00822     0.01822    -0.01833     0.00642    -0.00822
 PZ  C  21  -0.20178    -0.01789    -0.34855     0.37597    -0.06132     0.22904
  
  S  C  22   0.00254    -0.01610    -0.00252     0.00480     0.01183     0.00695
 PX  C  22  -0.02435    -0.01110    -0.03645     0.02768     0.01097     0.01513
 PY  C  22   0.01033     0.01705     0.01153    -0.01362    -0.01312    -0.01278
 PZ  C  22  -0.08028    -0.27238    -0.25237     0.25811     0.21227     0.19182
  
  S  C  23  -0.00242     0.01417    -0.00190     0.00848    -0.00999     0.00833
 PX  C  23   0.01782    -0.02774     0.01804    -0.02467     0.01729    -0.01888
 PY  C  23  -0.01875     0.01093    -0.01375     0.01566    -0.00743     0.01107
 PZ  C  23   0.10069    -0.34080     0.07265    -0.20439     0.26069    -0.17441
  
  S  C  24   0.00985    -0.02081     0.02172    -0.03471     0.00784    -0.02321
 PX  C  24  -0.00293     0.01059    -0.00461     0.00349    -0.00624     0.00154
 PY  C  24   0.02578     0.01080     0.01458    -0.00421    -0.01138    -0.00139
 PZ  C  24   0.19915    -0.15384     0.28723    -0.35896     0.01562    -0.22413
  
  S  H  25   0.01573     0.00559     0.00669     0.00171    -0.00132     0.00148
  
  S  H  26  -0.01670     0.01177    -0.01449     0.00554    -0.00809    -0.00201
  
  S  H  27  -0.00619    -0.00884    -0.00230    -0.00084     0.00766    -0.00246
  
  S  H  28   0.01720     0.00771     0.00493     0.00851    -0.00693     0.00730
  
  S  C  29   0.01908    -0.02047     0.01492     0.00216     0.02007     0.01894
 PX  C  29  -0.04829     0.03485    -0.03449     0.00008    -0.03212    -0.02021
 PY  C  29   0.03111     0.02804     0.00884     0.00679    -0.02242    -0.00270
 PZ  C  29  -0.23333     0.31547    -0.16597     0.02325    -0.32823    -0.14668
  
  S  C  30  -0.00991    -0.00338    -0.01347     0.00521     0.00042    -0.00239
 PX  C  30   0.02744    -0.00503     0.01417     0.01437     0.01099     0.01595
 PY  C  30  -0.05441    -0.02612    -0.03899     0.00386     0.03056    -0.00782
 PZ  C  30   0.19784     0.22321     0.30079    -0.06778    -0.33687     0.12810




    ROOT NO.   43          44          45          46          47          48

            -1.08878     0.19931     0.24159     1.23650     1.34122     1.77841
  
  
  S  C   1  -0.01915     0.00924    -0.03266     0.04078    -0.02323    -0.02784
 PX  C   1   0.00670    -0.01418     0.01225    -0.00780     0.01397    -0.00120
 PY  C   1  -0.00231    -0.00177    -0.00228     0.00122     0.00396    -0.00007
 PZ  C   1  -0.19391     0.19894    -0.30462     0.27914    -0.28059    -0.11440
  
  S  C   2   0.01470    -0.00361     0.02924    -0.04475     0.02155     0.03556
 PX  C   2   0.00072     0.00493    -0.00316     0.00387    -0.00512    -0.00106
 PY  C   2  -0.01861    -0.00932    -0.02844     0.03193     0.00378    -0.02222
 PZ  C   2   0.22686     0.08271     0.32309    -0.35130     0.01401     0.23745
  
  S  C   3  -0.00654     0.00568    -0.00656     0.01004    -0.02022    -0.00438
 PX  C   3  -0.00816     0.01065    -0.00019    -0.01055    -0.01364     0.01345
 PY  C   3   0.00531     0.01035     0.00776    -0.01391    -0.00611     0.01718
 PZ  C   3   0.12970    -0.32661     0.06903     0.14352     0.31303    -0.24889
  
  S  C   4   0.00539    -0.00708     0.00678    -0.00071     0.01172    -0.01789
 PX  C   4   0.00344    -0.01410     0.01609    -0.01850     0.00481     0.01147
 PY  C   4  -0.00721    -0.01333     0.00481    -0.00832    -0.00031     0.00275
 PZ  C   4   0.15176     0.31119    -0.14173     0.29817    -0.15048    -0.24396
  
  S  C   5   0.00084    -0.00104     0.00414    -0.00795    -0.00456     0.01863
 PX  C   5  -0.02060    -0.00581    -0.02565     0.01774     0.01487    -0.00735
 PY  C   5  -0.01020    -0.00212    -0.01291     0.00879     0.00886    -0.00668
 PZ  C   5   0.22007     0.09820     0.30866    -0.26715    -0.24696     0.23031
  
  S  C   6   0.01363     0.00841     0.01601    -0.01658    -0.00392     0.00762
 PX  C   6   0.03009     0.03888     0.01988    -0.01097    -0.04573     0.01375
 PY  C   6  -0.00310     0.00477    -0.01008     0.01573    -0.00859    -0.01448
 PZ  C   6  -0.19602    -0.32114    -0.11026     0.04638     0.40503    -0.10414
  
  S  C   7   0.00044     0.00680    -0.00092    -0.00305     0.01998    -0.00730
 PX  C   7   0.02093     0.01001     0.00984     0.00562     0.01431    -0.01819
 PY  C   7  -0.00827     0.00665    -0.00523    -0.00385     0.00147     0.00574
 PZ  C   7  -0.37044    -0.06188    -0.22244    -0.09760    -0.25987     0.33166
  
  S  C   8  -0.01981    -0.00784    -0.00632    -0.00612    -0.00048     0.02618
 PX  C   8  -0.00549    -0.00806     0.00375     0.00144     0.00114     0.00505
 PY  C   8   0.02188     0.00181     0.01311     0.01139    -0.00373    -0.01848
 PZ  C   8  -0.36791    -0.07001    -0.22074    -0.22418     0.14486     0.34393
  
  S  C   9  -0.00168     0.02592    -0.01055    -0.01090     0.01189    -0.02803
 PX  C   9  -0.00532     0.00149     0.00239    -0.01084     0.00641    -0.00395
 PY  C   9  -0.01426     0.00013    -0.00112    -0.01311    -0.00186    -0.01196
 PZ  C   9  -0.01234    -0.27777     0.34041    -0.01893    -0.04459    -0.28351
  
  S  C  10  -0.00688    -0.02729     0.00712     0.00586    -0.02801     0.00063
 PX  C  10  -0.01869    -0.01803    -0.00070    -0.00599    -0.01002    -0.00191
 PY  C  10   0.00460    -0.00280     0.00331     0.00459    -0.00027     0.00514
 PZ  C  10   0.00976     0.43594     0.12546    -0.04233     0.01865    -0.25506
  
  S  C  11   0.04150    -0.01452    -0.02754     0.01350     0.02992     0.03901
 PX  C  11  -0.00100    -0.01239     0.00283     0.00140    -0.01238    -0.00433
 PY  C  11   0.01360    -0.01097    -0.00563    -0.00045    -0.00178    -0.00168
 PZ  C  11   0.35585    -0.07521    -0.18647     0.16492     0.25855     0.30659
  
  S  H  12  -0.02111     0.00981     0.01663    -0.01194    -0.01571    -0.02903
  
  S  C  13   0.03483    -0.01459    -0.01723     0.04621    -0.01446     0.07417
 PX  C  13  -0.02049     0.01148     0.00844    -0.01251     0.01154    -0.01507
 PY  C  13   0.02271     0.00352    -0.01598     0.02186    -0.00269     0.02125
 PZ  C  13   0.37052    -0.06647    -0.18677     0.28809    -0.10259     0.30086
  
  S  H  14   0.00306    -0.00279    -0.00015     0.00052    -0.01077     0.01244
  
  S  H  15   0.01047    -0.00483     0.01625    -0.02003     0.01300     0.01393
  
  S  H  16  -0.00676     0.00264    -0.01934     0.03213    -0.01199    -0.02579
  
  S  H  17  -0.00024     0.00318    -0.00299     0.00453     0.00042    -0.00803
  
  S  H  18  -0.01018    -0.00415    -0.01187     0.01194    -0.00007    -0.00459
  
  S  H  19   0.01165     0.00534     0.00518     0.00258     0.00166    -0.01035
  
  S  H  20  -0.02213     0.01036     0.01526    -0.03396     0.01443    -0.05288
  
  S  C  21  -0.00635    -0.01026     0.00360    -0.00519    -0.00517    -0.00811
 PX  C  21  -0.00577     0.01393     0.01543     0.02366     0.00292     0.01478
 PY  C  21   0.00614    -0.00431    -0.00961    -0.01091    -0.00364    -0.00709
 PZ  C  21  -0.24149     0.12999     0.34418     0.35373     0.01530     0.18213
  
  S  C  22   0.00683     0.01058    -0.00888    -0.00816     0.01538     0.00024
 PX  C  22   0.01765     0.01005    -0.02583    -0.02578     0.02023    -0.00952
 PY  C  22  -0.00790    -0.01032     0.01186     0.01166    -0.01057     0.00518
 PZ  C  22   0.20821     0.14646    -0.29453    -0.27981     0.25236    -0.08188
  
  S  C  23  -0.00158     0.00790    -0.00494    -0.01076     0.00161    -0.01354
 PX  C  23  -0.00141    -0.01254     0.01108     0.01548    -0.00923     0.01037
 PY  C  23  -0.00514     0.01566     0.00118    -0.00340     0.02013     0.00110
 PZ  C  23   0.18786    -0.29985    -0.13302    -0.04001    -0.36539    -0.07990
  
  S  C  24  -0.02374     0.01534     0.03922     0.04248     0.03505     0.04247
 PX  C  24   0.00122    -0.00406    -0.00247    -0.00547    -0.00662    -0.00892
 PY  C  24  -0.00368    -0.00224     0.00504     0.00222    -0.00171    -0.00455
 PZ  C  24  -0.23852     0.10686     0.33298     0.27334     0.19626     0.17083
  
  S  H  25   0.00348    -0.00084    -0.00151     0.00536    -0.00208     0.00750
  
  S  H  26  -0.00171    -0.01094     0.00293     0.00432    -0.01543    -0.00054
  
  S  H  27   0.00337    -0.00818     0.00029     0.00627    -0.00727     0.00849
  
  S  H  28   0.01200    -0.01402    -0.02393    -0.02765    -0.02803    -0.02620
  
  S  C  29   0.00407     0.03310     0.00220     0.01670     0.01847     0.01905
 PX  C  29  -0.00466    -0.02108    -0.00405    -0.01464    -0.01332    -0.01362
 PY  C  29   0.00533    -0.01136    -0.00394     0.01068     0.00367     0.02176
 PZ  C  29  -0.15019    -0.33231     0.03987    -0.15297    -0.35240    -0.21099
  
  S  C  30  -0.00458    -0.01167    -0.00212    -0.02911    -0.01802    -0.04827
 PX  C  30   0.01479    -0.00891    -0.01070     0.00673    -0.01301     0.01362
 PY  C  30   0.01403    -0.00965    -0.00290     0.00714    -0.00904     0.00317
 PZ  C  30  -0.13769     0.30252    -0.15426    -0.34776     0.18372    -0.20141




    ROOT NO.   49          50          51          52          53          54

             2.32424     2.40746     2.81497     3.12684     3.24962     3.31400
  
  
  S  C   1  -0.10215     0.08104    -0.21162    -0.07111     0.25359    -0.09510
 PX  C   1  -0.00636     0.02840    -0.02007     0.00733    -0.00627    -0.06994
 PY  C   1  -0.00593     0.01484    -0.02970     0.00007     0.04031     0.06834
 PZ  C   1  -0.23465    -0.16669     0.00769    -0.19960    -0.09487     0.04266
  
  S  C   2   0.12672    -0.11615     0.23248     0.05700    -0.18978     0.17245
 PX  C   2   0.00221    -0.02321    -0.00648    -0.02580     0.05752     0.02404
 PY  C   2   0.00842    -0.05513     0.04211    -0.03884    -0.01183     0.04320
 PZ  C   2   0.17426     0.12164    -0.00042     0.22124     0.09321    -0.05141
  
  S  C   3  -0.13561     0.20039    -0.25620     0.03268     0.10069    -0.18645
 PX  C   3   0.00189     0.02351     0.05239     0.03630    -0.08966    -0.11023
 PY  C   3  -0.00512     0.03293    -0.01767     0.03858    -0.02382     0.11758
 PZ  C   3  -0.07375    -0.01445    -0.06034    -0.29363    -0.06243     0.05059
  
  S  C   4   0.12342    -0.18930     0.24997    -0.04329    -0.08589    -0.19667
 PX  C   4   0.01080    -0.03453    -0.01602    -0.03300     0.07340     0.04598
 PY  C   4  -0.00915    -0.00249    -0.04790    -0.01902     0.06799    -0.14125
 PZ  C   4   0.07336     0.03221     0.07054     0.30014     0.04621    -0.03244
  
  S  C   5  -0.08651     0.12912    -0.22293     0.00738     0.18591     0.20827
 PX  C   5  -0.00933     0.05039    -0.02710     0.03868    -0.03174     0.03163
 PY  C   5   0.01462     0.00084     0.02330     0.02209    -0.03781    -0.00600
 PZ  C   5  -0.20310    -0.12602    -0.04167    -0.24263    -0.05463     0.01832
  
  S  C   6   0.07334    -0.08968     0.20144     0.03829    -0.24567    -0.14121
 PX  C   6  -0.01175    -0.03958     0.03028    -0.02279    -0.02843     0.00962
 PY  C   6  -0.00813    -0.01636    -0.00453    -0.02812     0.03210    -0.08551
 PZ  C   6   0.25824     0.15880     0.03607     0.21479     0.04432    -0.03145
  
  S  C   7   0.13713    -0.22922     0.13818    -0.07561     0.10642     0.30708
 PX  C   7   0.00264    -0.00040    -0.07908    -0.01835     0.10314     0.01328
 PY  C   7   0.02506    -0.04842    -0.02105    -0.01045     0.07002     0.02352
 PZ  C   7  -0.10179    -0.10052     0.03339     0.13726     0.01786    -0.04904
  
  S  C   8  -0.13008     0.20178    -0.13305     0.05897    -0.13367     0.28324
 PX  C   8  -0.02598     0.03764     0.05707     0.02103    -0.11831     0.01624
 PY  C   8   0.01010    -0.02360     0.05471     0.00615    -0.04655    -0.01180
 PZ  C   8   0.13112     0.06681    -0.03453    -0.14168     0.00639    -0.00572
  
  S  C   9   0.16442    -0.24906     0.01008    -0.09669     0.31289    -0.19688
 PX  C   9   0.00452    -0.01931    -0.07254    -0.00282     0.03718     0.09526
 PY  C   9  -0.02249     0.02765    -0.04550     0.01839    -0.06833    -0.14693
 PZ  C   9  -0.29266    -0.19504     0.01994    -0.00971    -0.03912    -0.02723
  
  S  C  10  -0.16220     0.26330    -0.01160     0.08498    -0.29219    -0.22327
 PX  C  10   0.01278    -0.02472     0.07838    -0.03798     0.04532    -0.04434
 PY  C  10  -0.01008     0.01412     0.04189     0.01229    -0.07521     0.16209
 PZ  C  10   0.28041     0.22024    -0.00707     0.01359     0.03709     0.04527
  
  S  C  11   0.09659    -0.23430    -0.13118     0.02344     0.10955     0.21592
 PX  C  11  -0.03245     0.03391    -0.07072     0.06319    -0.11210    -0.04159
 PY  C  11   0.00803    -0.03053    -0.05771     0.03595    -0.03920     0.00354
 PZ  C  11  -0.15837    -0.08350    -0.03109    -0.14490    -0.10859    -0.08285
  
  S  H  12  -0.05313     0.13164     0.08380    -0.01052    -0.07922    -0.08917
  
  S  C  13  -0.10130     0.22584     0.13374     0.03124    -0.12573     0.24585
 PX  C  13  -0.00369     0.00103     0.08689    -0.06395     0.08970    -0.00021
 PY  C  13   0.04531    -0.03946     0.02547    -0.01283     0.08201    -0.02828
 PZ  C  13   0.16207     0.04322     0.00291     0.13431     0.10765    -0.03119
  
  S  H  14  -0.07729     0.13113    -0.08745     0.05979    -0.07872    -0.16031
  
  S  H  15   0.06138    -0.05554     0.13377     0.03939    -0.16256     0.08638
  
  S  H  16  -0.07546     0.05521    -0.13800    -0.04837     0.11913    -0.06213
  
  S  H  17   0.04642    -0.07330     0.13897    -0.00472    -0.13229    -0.09536
  
  S  H  18  -0.05041     0.05573    -0.12860    -0.02883     0.15468     0.11221
  
  S  H  19   0.07479    -0.11417     0.08308    -0.03719     0.09278    -0.14082
  
  S  H  20   0.04936    -0.13902    -0.08755    -0.02655     0.08117    -0.11462
  
  S  C  21   0.06961    -0.15871    -0.23736     0.14361    -0.17347     0.16382
 PX  C  21  -0.00934     0.06415     0.04077    -0.03450    -0.02733    -0.04120
 PY  C  21   0.00150    -0.00434    -0.01803     0.01473    -0.03342    -0.00343
 PZ  C  21   0.20997     0.06790    -0.09291    -0.22677    -0.08898    -0.00831
  
  S  C  22  -0.07056     0.09205     0.19468    -0.09651     0.20896    -0.08359
 PX  C  22  -0.01079    -0.04149    -0.03814     0.04167    -0.02575    -0.00049
 PY  C  22   0.01431    -0.01486    -0.01106     0.00673     0.01331     0.07767
 PZ  C  22  -0.30297    -0.14020     0.07104     0.23526     0.06754     0.00853
  
  S  C  23   0.06031    -0.09047    -0.19057     0.07924    -0.20022    -0.09484
 PX  C  23  -0.00677     0.02039     0.01267     0.00748    -0.02359     0.06571
 PY  C  23  -0.02461     0.00315     0.02488    -0.00118     0.02501    -0.03971
 PZ  C  23   0.31531     0.16216    -0.06951    -0.24541    -0.07978     0.00871
  
  S  C  24  -0.10684     0.10430     0.20969    -0.03651     0.13123     0.17605
 PX  C  24   0.01556    -0.02382    -0.01139    -0.00603     0.04098    -0.03200
 PY  C  24   0.01858    -0.05035    -0.04967     0.03096     0.00467    -0.04250
 PZ  C  24  -0.20066    -0.14066     0.02927     0.25787     0.06948    -0.04390
  
  S  H  25  -0.03662     0.09099     0.14935    -0.09196     0.12097    -0.07843
  
  S  H  26   0.04713    -0.04979    -0.10986     0.04839    -0.11648     0.06205
  
  S  H  27  -0.03283     0.06664     0.12723    -0.06140     0.13373     0.07278
  
  S  H  28   0.06658    -0.04936    -0.12654     0.01540    -0.09241    -0.08032
  
  S  C  29  -0.09340     0.22981     0.26699    -0.14936     0.07414    -0.14113
 PX  C  29   0.00636    -0.02386     0.02553    -0.01799     0.07935    -0.05095
 PY  C  29  -0.01116     0.00450     0.06205    -0.02052     0.05323     0.12226
 PZ  C  29  -0.03392     0.03773     0.12443     0.26736     0.14586     0.02435
  
  S  C  30   0.10849    -0.20735    -0.26372     0.09203    -0.05723    -0.18374
 PX  C  30   0.00446     0.01534    -0.05126     0.04763    -0.08124     0.07637
 PY  C  30  -0.00451     0.04268     0.03040    -0.03152    -0.01018    -0.09616
 PZ  C  30   0.02700     0.02059    -0.07597    -0.28734    -0.13697     0.00681




    ROOT NO.   55          56          57          58          59          60

             3.52199     3.61983     3.73241     3.85003     4.11913     4.17378
  
  
  S  C   1   0.09995     0.20637     0.28896     0.10646     0.10851     0.04745
 PX  C   1  -0.00024    -0.04105    -0.06142     0.10754     0.10465     0.03604
 PY  C   1  -0.00802     0.04109     0.04222    -0.10145    -0.06608    -0.03680
 PZ  C   1   0.10794    -0.09230    -0.05895    -0.03221    -0.04027    -0.01318
  
  S  C   2  -0.06435    -0.04664    -0.03157    -0.26494    -0.27090    -0.09303
 PX  C   2   0.03900     0.09632     0.15430    -0.02563     0.00513     0.00233
 PY  C   2   0.04400     0.03496     0.08852    -0.01248     0.05189     0.01398
 PZ  C   2  -0.14764     0.10030     0.04525     0.04793     0.06777     0.01929
  
  S  C   3  -0.06134    -0.13280    -0.28462     0.19675    -0.00424     0.04238
 PX  C   3  -0.00003    -0.02040     0.04244     0.00256    -0.16329    -0.01129
 PY  C   3  -0.07341    -0.05910    -0.13109    -0.11851    -0.05841    -0.04187
 PZ  C   3   0.26826    -0.13960    -0.04144    -0.02477    -0.04134    -0.01127
  
  S  C   4   0.13047     0.13440     0.32941     0.08880    -0.02421     0.02232
 PX  C   4   0.01805     0.05897     0.04701    -0.11855    -0.16252    -0.04455
 PY  C   4   0.01459    -0.01512    -0.07133     0.09547    -0.10675     0.01981
 PZ  C   4  -0.27366     0.12727     0.02540     0.01433     0.00087     0.01283
  
  S  C   5  -0.06706     0.05291    -0.05100    -0.26476    -0.28163    -0.09119
 PX  C   5  -0.05586    -0.09068    -0.16254     0.04023     0.05638     0.02605
 PY  C   5  -0.02671    -0.04612    -0.07613     0.00113    -0.03477    -0.00629
 PZ  C   5   0.16601    -0.08400    -0.02530    -0.00168    -0.00097    -0.00342
  
  S  C   6  -0.03108    -0.21404    -0.25715     0.19873     0.11395     0.06080
 PX  C   6   0.01524    -0.00536     0.01174    -0.01897     0.01150    -0.00885
 PY  C   6   0.05172     0.05172     0.10512     0.11093     0.12292     0.04382
 PZ  C   6  -0.12386     0.05345     0.00864     0.02537     0.03019     0.01007
  
  S  C   7   0.01287     0.12539     0.03719    -0.11327     0.31562    -0.01331
 PX  C   7  -0.01583    -0.02721    -0.13571     0.08114     0.06616     0.03282
 PY  C   7  -0.01827    -0.00361    -0.07527     0.05551    -0.06546     0.02963
 PZ  C   7  -0.23050     0.10874     0.01381     0.01971     0.02567     0.00634
  
  S  C   8  -0.08195    -0.11746    -0.06576    -0.10330     0.33956    -0.01866
 PX  C   8   0.02930     0.02103     0.15745     0.03392    -0.02165     0.03460
 PY  C   8   0.01109     0.02559     0.08396     0.00863     0.07545     0.00423
 PZ  C   8   0.24132    -0.09633    -0.00234    -0.00797    -0.01523    -0.01730
  
  S  C   9  -0.00051     0.04342    -0.24502     0.02571    -0.07959    -0.09455
 PX  C   9  -0.04588    -0.04736    -0.07828    -0.06233     0.15483    -0.03378
 PY  C   9  -0.01001    -0.04129     0.05794    -0.07800     0.00739    -0.14727
 PZ  C   9  -0.29470     0.13171    -0.00543     0.02924    -0.01553     0.02606
  
  S  C  10   0.03510    -0.04181     0.22458    -0.07193    -0.05767    -0.11597
 PX  C  10   0.01196     0.07791    -0.04926    -0.08599     0.08195    -0.13190
 PY  C  10   0.00122     0.02059     0.09271    -0.05006     0.13082     0.04384
 PZ  C  10   0.29546    -0.12975    -0.00015    -0.01870    -0.00711    -0.01359
  
  S  C  11  -0.07779    -0.14279     0.02261     0.17321    -0.12171     0.32579
 PX  C  11   0.00253    -0.07698     0.13241     0.03225    -0.04028    -0.00273
 PY  C  11  -0.00069    -0.04570     0.05655     0.01013     0.01094    -0.09049
 PZ  C  11  -0.21565     0.10658     0.01465    -0.01744     0.02034    -0.05473
  
  S  H  12   0.05835     0.11347    -0.01638    -0.10710     0.12178    -0.29864
  
  S  C  13   0.08334     0.10514     0.06208     0.15656    -0.12391     0.32075
 PX  C  13  -0.00493     0.09177    -0.11259     0.07667    -0.02682    -0.05888
 PY  C  13   0.03446     0.01946    -0.06319     0.04405    -0.04576     0.04609
 PZ  C  13   0.20472    -0.10397    -0.02819    -0.05804     0.04403    -0.08608
  
  S  H  14  -0.02137    -0.09771    -0.02879     0.07180    -0.30672     0.03314
  
  S  H  15  -0.06322    -0.13321    -0.18765    -0.08663    -0.04718    -0.03572
  
  S  H  16   0.04604     0.03029     0.01996     0.15966     0.23499     0.06581
  
  S  H  17   0.04171    -0.03991     0.03644     0.17035     0.25081     0.06850
  
  S  H  18   0.02159     0.14017     0.17356    -0.14381    -0.04702    -0.04346
  
  S  H  19   0.05491     0.08902     0.05164     0.06616    -0.31569     0.03938
  
  S  H  20  -0.08155    -0.07446    -0.04466    -0.09393     0.12647    -0.29805
  
  S  C  21   0.08261     0.07442     0.03338     0.26675    -0.05920    -0.28981
 PX  C  21   0.04461     0.15415    -0.10929    -0.00257    -0.00634    -0.03963
 PY  C  21   0.03759     0.07953    -0.05340    -0.01591     0.00111     0.04773
 PZ  C  21  -0.14898     0.02690     0.02465     0.01900    -0.00637     0.00243
  
  S  C  22  -0.15213    -0.30959     0.15746    -0.13004     0.04363     0.06258
 PX  C  22   0.02895     0.02224    -0.01060    -0.00640     0.00876    -0.02302
 PY  C  22  -0.03022    -0.07855     0.07355     0.13241    -0.03221    -0.14078
 PZ  C  22   0.12856    -0.01475    -0.01958    -0.00771     0.00084     0.00027
  
  S  C  23   0.15753     0.32191    -0.20576    -0.15258     0.03807     0.14745
 PX  C  23   0.03314     0.09008    -0.04909     0.10969    -0.02348    -0.11386
 PY  C  23  -0.00610    -0.02254    -0.00032    -0.07256     0.02551     0.04588
 PZ  C  23  -0.12601     0.03738     0.00998     0.02661    -0.00660    -0.00672
  
  S  C  24  -0.03059    -0.02482     0.00974     0.29407    -0.06051    -0.30748
 PX  C  24  -0.05504    -0.14545     0.09466    -0.02873     0.00498    -0.00297
 PY  C  24  -0.01184    -0.08895     0.06196    -0.01469    -0.00038    -0.06382
 PZ  C  24   0.15862    -0.04115    -0.01946    -0.08994     0.02355     0.05841
  
  S  H  25  -0.06032    -0.06230    -0.01611    -0.17052     0.03190     0.26150
  
  S  H  26   0.07996     0.17028    -0.08473     0.08500    -0.03599     0.00325
  
  S  H  27  -0.11375    -0.22696     0.14893     0.10628    -0.03430    -0.05981
  
  S  H  28   0.01319     0.01779     0.00161    -0.18077     0.03072     0.26752
  
  S  C  29   0.03593     0.25025    -0.22473    -0.13640     0.05154    -0.00124
 PX  C  29  -0.04193    -0.09758     0.01986    -0.12060     0.02352     0.16180
 PY  C  29   0.00033     0.05137    -0.05490     0.12581    -0.06476     0.10234
 PZ  C  29   0.25033    -0.05331    -0.05064    -0.03312     0.01524    -0.00706
  
  S  C  30  -0.04930    -0.25149     0.17448    -0.20982     0.07055    -0.01209
 PX  C  30   0.03022    -0.00868     0.05659     0.01750    -0.03725     0.17279
 PY  C  30   0.02495     0.09453    -0.08490    -0.14582     0.04753     0.08258
 PZ  C  30  -0.24585     0.08091     0.03257     0.05225    -0.02585     0.02098




    ROOT NO.   61          62          63          64          65          66

             5.14964     5.30645     5.41403     5.64883     6.05630     6.30290
  
  
  S  C   1  -0.02701    -0.26763     0.10327    -0.11830     0.06251    -0.01848
 PX  C   1   0.08695     0.10839    -0.09434     0.16326    -0.12414     0.05206
 PY  C   1  -0.07491     0.27043    -0.05134     0.02503    -0.01243     0.00345
 PZ  C   1   0.00597     0.02056    -0.01058     0.01498    -0.00852     0.00192
  
  S  C   2  -0.12052    -0.11396     0.11234    -0.18492     0.13160    -0.05808
 PX  C   2  -0.04155    -0.20212     0.09014    -0.10995     0.06302    -0.02278
 PY  C   2   0.00842     0.06941    -0.05424     0.13685    -0.20232     0.14076
 PZ  C   2   0.01254     0.02898    -0.01881     0.03158    -0.03050     0.01843
  
  S  C   3   0.06324     0.06850    -0.02594    -0.05045     0.16337    -0.12528
 PX  C   3  -0.14914     0.00920     0.05798    -0.06520    -0.07660     0.08553
 PY  C   3  -0.00717    -0.04467     0.04290    -0.10766     0.16523    -0.11364
 PZ  C   3  -0.01194    -0.00846     0.00880    -0.01467     0.00970    -0.00484
  
  S  C   4  -0.07069    -0.00101     0.00204     0.06521    -0.16780     0.11433
 PX  C   4   0.10626    -0.04217    -0.04827     0.11501    -0.08400     0.03897
 PY  C   4   0.09502     0.07707    -0.05672     0.00645     0.14675    -0.13181
 PZ  C   4   0.01190     0.00237    -0.00670     0.00782    -0.00215     0.00052
  
  S  C   5   0.17028    -0.11806    -0.05764     0.15953    -0.11967     0.04777
 PX  C   5   0.03171    -0.02162     0.00945    -0.06521     0.13129    -0.08447
 PY  C   5   0.13779    -0.21628    -0.01532     0.12898    -0.15745     0.09073
 PZ  C   5  -0.00065    -0.01234     0.00530    -0.00815     0.00876    -0.00487
  
  S  C   6   0.15816    -0.26212     0.00126     0.06977    -0.05325     0.02184
 PX  C   6  -0.12409     0.27190    -0.01509    -0.06535     0.07256    -0.03383
 PY  C   6  -0.08006    -0.05556     0.06869    -0.12808     0.09285    -0.03371
 PZ  C   6  -0.00605     0.02507    -0.00391    -0.00254     0.00527    -0.00240
  
  S  C   7   0.20219    -0.02368    -0.06923     0.07860     0.08526    -0.09976
 PX  C   7   0.08705    -0.00496    -0.02138    -0.02749     0.12842    -0.11188
 PY  C   7  -0.08847     0.01642     0.04788    -0.11967    -0.10563     0.25202
 PZ  C   7   0.01261     0.00506    -0.00426     0.00249     0.00566    -0.00390
  
  S  C   8  -0.18586    -0.06575     0.09660    -0.07917    -0.09220     0.10441
 PX  C   8   0.02808    -0.01857    -0.05237     0.09796     0.01842    -0.12374
 PY  C   8  -0.09042    -0.06214     0.05735    -0.02440    -0.16486     0.19524
 PZ  C   8   0.00295    -0.00143    -0.00194     0.00815    -0.00213    -0.00294
  
  S  C   9  -0.00068     0.05054     0.05678    -0.12321    -0.00620     0.14288
 PX  C   9  -0.14074    -0.03454     0.06762    -0.05964    -0.07787     0.09610
 PY  C   9  -0.07513    -0.01840     0.00919     0.12793    -0.02757    -0.17329
 PZ  C   9   0.01205     0.00749    -0.00052    -0.01570     0.00420     0.01678
  
  S  C  10   0.00238    -0.00249    -0.02886     0.14786     0.01144    -0.17180
 PX  C  10   0.14923     0.03655    -0.00669    -0.06145     0.06637     0.08852
[...]
  S   H   18    0.0898   -0.0411   -0.0431   -0.0353    0.0360    0.3136    0.0071   -0.0799
  S   H   19    0.1609   -0.2211    0.3031    0.1294    0.0069    0.0549   -0.0153    0.1870
  S   H   20   -0.1321   -0.2340    0.2607   -0.1490    0.0891   -0.0091    0.0692   -0.1569
  S   C   21   -0.1353   -0.0699   -0.0209    0.0198   -0.0003   -0.0007    0.0591   -0.0069
  Px  C   21   -0.1139   -0.0988   -0.1189    0.3166    0.1309    0.0042   -0.1045    0.0918
  Py  C   21    0.1729    0.1088    0.0403   -0.0988   -0.0336   -0.0034    0.2730    0.0278
  Pz  C   21    0.0122    0.0110    0.0072   -0.0183   -0.0069   -0.0001    0.0157    0.0002
  S   C   22   -0.1058   -0.0445    0.0296   -0.0607   -0.0223    0.0007   -0.0961   -0.0401
  Px  C   22   -0.1109   -0.0539    0.0255   -0.0480   -0.0123   -0.0025    0.4717    0.1511
  Py  C   22   -0.0858   -0.0430   -0.0246    0.0592    0.0263    0.0009   -0.0431   -0.0224
  Pz  C   22    0.0106    0.0038   -0.0042    0.0080    0.0023    0.0001   -0.0335   -0.0114
  S   C   23    0.0273    0.0125    0.0253   -0.0529   -0.0205   -0.0008    0.1317    0.0292
  Px  C   23    0.1231    0.0616    0.0006    0.0050    0.0089    0.0005   -0.2338   -0.0101
  Py  C   23   -0.0240   -0.0083    0.0461   -0.1018   -0.0357    0.0024   -0.4327   -0.1191
  Pz  C   23    0.0016    0.0024    0.0007   -0.0040   -0.0023    0.0000   -0.0006   -0.0041
  S   C   24    0.1279    0.0636   -0.0163    0.0061   -0.0053    0.0004   -0.0820    0.0264
  Px  C   24   -0.0352   -0.0188   -0.0159    0.0566    0.0314    0.0009   -0.2287   -0.0229
  Py  C   24    0.1874    0.1475   -0.1305    0.3153    0.1247   -0.0029    0.2408   -0.1119
  Pz  C   24   -0.0285   -0.0171    0.0091   -0.0098   -0.0008   -0.0000    0.0071   -0.0027
  S   H   25    0.2360    0.1472    0.0877   -0.2064   -0.0752   -0.0031    0.1760   -0.0126
  S   H   26    0.1527    0.0714   -0.0260    0.0420    0.0091    0.0014   -0.2951   -0.0957
  S   H   27   -0.0502   -0.0302   -0.0333    0.0646    0.0187   -0.0012    0.2843    0.0666
  S   H   28   -0.2001   -0.1335    0.0931   -0.1996   -0.0705    0.0018   -0.1940    0.0481
  S   C   29   -0.1393   -0.1166   -0.0749    0.2662    0.1309   -0.0001    0.0024    0.0146
  Px  C   29    0.0961    0.0552   -0.0047    0.0955    0.0671    0.0057   -0.1099    0.1159
  Py  C   29   -0.1488   -0.1527    0.0166   -0.1250   -0.0879   -0.0010   -0.0126    0.0875
  Pz  C   29   -0.0228   -0.0184   -0.0009    0.0216    0.0153   -0.0004    0.0082   -0.0085
  S   C   30    0.1574    0.1344   -0.0775    0.2491    0.1237    0.0013   -0.0285   -0.0077
  Px  C   30    0.0556    0.0843    0.0054   -0.0631   -0.0412   -0.0014    0.1127   -0.1732
  Py  C   30   -0.1430   -0.1107   -0.0078    0.1577    0.1077   -0.0032    0.0816   -0.0580
  Pz  C   30    0.0100    0.0102   -0.0161    0.0180    0.0011   -0.0002    0.0050   -0.0027


   Root No.      73        74        75        76        77        78        79        80

                73 A      74 A      75 A      76 A      77 A      78 A      79 A      80 A   

                 9.290     9.508    10.068    10.612    10.929    11.529    11.741    12.177
  
  S   C    1    0.0363    0.0699   -0.0410   -0.0707    0.0352    0.0159    0.0133    0.0074
  Px  C    1    0.1489    0.2243    0.1088   -0.1949   -0.2247   -0.1417    0.0310    0.1642
  Py  C    1    0.0556    0.1192   -0.1955   -0.0820    0.2348    0.1304    0.0125   -0.0935
  Pz  C    1    0.0078    0.0092    0.0126   -0.0058   -0.0199   -0.0119    0.0012    0.0116
  S   C    2   -0.0744   -0.0846   -0.0848    0.0291    0.1049    0.0463    0.0246    0.0061
  Px  C    2    0.1328    0.2189    0.0422   -0.2253   -0.1316   -0.0972    0.0647    0.1882
  Py  C    2   -0.2007   -0.1834   -0.1966   -0.0327    0.1817    0.0568    0.1069    0.1250
  Pz  C    2   -0.0126   -0.0107   -0.0126   -0.0037    0.0118    0.0039    0.0068    0.0077
  S   C    3   -0.0098   -0.0449   -0.0120    0.0671    0.0500    0.0257    0.0060   -0.0020
  Px  C    3   -0.1665   -0.1404   -0.2373   -0.0230    0.0215   -0.0665   -0.1765   -0.1716
  Py  C    3   -0.0711   -0.0270   -0.1232   -0.1082    0.2095    0.0838    0.2878    0.3591
  Pz  C    3   -0.0063   -0.0058   -0.0105   -0.0022    0.0061    0.0004   -0.0011    0.0013
  S   C    4   -0.0140   -0.0404   -0.0040    0.0681   -0.0260   -0.0219   -0.0036    0.0139
  Px  C    4   -0.1261   -0.1532    0.2234   -0.0785   -0.1922   -0.0081   -0.1193   -0.2343
  Py  C    4   -0.0715   -0.1319    0.1074    0.0051    0.1217    0.1213    0.3271    0.3457
  Pz  C    4   -0.0104   -0.0148    0.0172   -0.0041   -0.0076    0.0025    0.0086    0.0026
  S   C    5   -0.0706   -0.1011    0.0669    0.0470   -0.0990   -0.0477   -0.0294   -0.0114
  Px  C    5   -0.0626   -0.0524    0.1479   -0.1476   -0.0984    0.0336   -0.1018   -0.2494
  Py  C    5    0.2207    0.3097   -0.0971   -0.1970    0.1778    0.1212    0.0296   -0.0893
  Pz  C    5    0.0076    0.0129    0.0025   -0.0189    0.0060    0.0101   -0.0049   -0.0211
  S   C    6    0.0454    0.0613    0.0521   -0.0679   -0.0439   -0.0075   -0.0043   -0.0170
  Px  C    6    0.1479    0.1812    0.1467   -0.1660   -0.0957   -0.0096   -0.0063   -0.0340
  Py  C    6    0.0795    0.1556   -0.1729   -0.1632    0.2958    0.2040   -0.0016   -0.2039
  Pz  C    6    0.0202    0.0258    0.0204   -0.0252   -0.0136   -0.0012   -0.0012   -0.0059
  S   C    7    0.0828    0.0359    0.0706    0.0656    0.0519    0.0574    0.0224    0.0284
  Px  C    7   -0.1142   -0.1400   -0.1626    0.0586    0.0721    0.0015   -0.1713   -0.1703
  Py  C    7    0.2243    0.0387    0.0840    0.2116    0.1668    0.1395   -0.0572   -0.0076
  Pz  C    7   -0.0124   -0.0075   -0.0100   -0.0026   -0.0002   -0.0032   -0.0071   -0.0077
  S   C    8    0.0516    0.0457   -0.0614    0.0781   -0.0528   -0.0680   -0.0294   -0.0176
  Px  C    8    0.0714   -0.0391   -0.0008    0.2163   -0.1454   -0.1131    0.1497    0.1076
  Py  C    8   -0.1635   -0.1819    0.1659   -0.0861    0.0406    0.1009    0.1412    0.1294
  Pz  C    8   -0.0124   -0.0115    0.0124   -0.0110    0.0079    0.0108    0.0089    0.0071
  S   C    9    0.0006    0.0399   -0.0348   -0.0021   -0.0055   -0.0301   -0.0215   -0.0012
  Px  C    9    0.0988   -0.0005   -0.0482    0.2628   -0.2097   -0.1714    0.1113    0.0888
  Py  C    9    0.0711    0.0424    0.1525    0.1619   -0.0188    0.3811   -0.2548    0.0686
  Pz  C    9    0.0022    0.0023    0.0003    0.0020   -0.0006    0.0057   -0.0080    0.0001
  S   C   10    0.0078    0.0345    0.0406    0.0025    0.0091    0.0218    0.0118    0.0055
  Px  C   10    0.1777    0.0351   -0.1042    0.2291    0.1595   -0.2435    0.1467   -0.0816
  Py  C   10    0.1088   -0.0342    0.1146    0.1412    0.1840    0.3529   -0.2265   -0.0284
  Pz  C   10    0.0107    0.0028   -0.0030    0.0134    0.0081   -0.0107    0.0122   -0.0046
  S   C   11   -0.0848    0.0226    0.0923   -0.0741   -0.0298    0.0910    0.0178   -0.0031
  Px  C   11    0.1203    0.0615   -0.0290    0.1863    0.1151   -0.1634    0.1783   -0.0864
  Py  C   11   -0.2405    0.1172    0.2236   -0.0959   -0.0048    0.1241    0.1332   -0.0757
  Pz  C   11    0.0204   -0.0059   -0.0224    0.0153    0.0058   -0.0201   -0.0061    0.0016
  S   H   12   -0.1491    0.0428    0.1172   -0.0820   -0.0313    0.1109    0.0218   -0.0183
  S   C   13   -0.0641    0.0325   -0.0801   -0.0874    0.0229   -0.0880   -0.0305    0.0069
  Px  C   13   -0.1244    0.1567   -0.1343    0.0225   -0.0433   -0.0278   -0.2500    0.1453
  Py  C   13    0.1764   -0.0236    0.1350    0.2501   -0.0748    0.1963   -0.0700    0.0418
  Pz  C   13   -0.0075    0.0050   -0.0073   -0.0026    0.0002   -0.0052   -0.0066    0.0039
  S   H   14    0.1387    0.0545    0.0837    0.0761    0.0644    0.0749    0.0193    0.0461
  S   H   15    0.0801    0.1378   -0.0542   -0.1065    0.0343    0.0143    0.0170    0.0102
  S   H   16   -0.1356   -0.1475   -0.1097    0.0397    0.1305    0.0579    0.0419    0.0188
  S   H   17   -0.1270   -0.1683    0.0874    0.0614   -0.1186   -0.0561   -0.0432   -0.0196
  S   H   18    0.0854    0.1032    0.0914   -0.0928   -0.0630   -0.0108   -0.0058   -0.0157
  S   H   19    0.0978    0.0773   -0.0834    0.0903   -0.0625   -0.0878   -0.0261   -0.0381
  S   H   20   -0.1195    0.0517   -0.1000   -0.1050    0.0260   -0.1097   -0.0290    0.0193
  S   C   21    0.0735   -0.0724   -0.0713   -0.0288   -0.0829    0.0696    0.0034    0.0212
  Px  C   21   -0.0934    0.0179    0.1867   -0.1716    0.1424   -0.0847   -0.1611    0.1693
  Py  C   21    0.2612   -0.2775   -0.1089   -0.1810   -0.1407    0.1294   -0.0587    0.1339
  Pz  C   21    0.0118   -0.0114   -0.0093   -0.0030   -0.0110    0.0093    0.0030   -0.0003
  S   C   22   -0.0506    0.0686   -0.0472    0.0689   -0.0389    0.0321    0.0029    0.0068
  Px  C   22    0.1710   -0.2177    0.1374   -0.1729    0.0920   -0.0681   -0.0077   -0.0144
  Py  C   22    0.1026   -0.1254   -0.1497   -0.1405   -0.2047    0.2083   -0.1341    0.2551
  Pz  C   22   -0.0072    0.0097   -0.0145    0.0057   -0.0130    0.0114   -0.0038    0.0096
  S   C   23   -0.0580    0.0696    0.0672    0.0806    0.0554   -0.0341    0.0054   -0.0074
  Px  C   23    0.1594   -0.2001    0.0058   -0.2074    0.0794   -0.1306    0.0860   -0.1927
  Py  C   23    0.0564   -0.0485   -0.2143   -0.0543   -0.1996    0.1694   -0.0752    0.1520
  Pz  C   23   -0.0083    0.0110   -0.0079    0.0107   -0.0111    0.0128   -0.0081    0.0167
  S   C   24    0.0777   -0.0870    0.0542   -0.0425    0.0749   -0.0691   -0.0029   -0.0243
  Px  C   24    0.1702   -0.2147   -0.0587   -0.2444   -0.0078   -0.0547    0.0955   -0.1841
  Py  C   24   -0.1978    0.1860   -0.1764   -0.0180   -0.1863    0.1312    0.0818   -0.0596
  Pz  C   24   -0.0084    0.0093   -0.0051    0.0050   -0.0071    0.0069   -0.0007    0.0037
  S   H   25    0.1575   -0.1419   -0.1065   -0.0380   -0.1118    0.0919    0.0219    0.0143
  S   H   26   -0.1066    0.1374   -0.0840    0.1091   -0.0551    0.0407    0.0080    0.0061
  S   H   27   -0.0668    0.0744    0.1075    0.0819    0.0785   -0.0488    0.0095   -0.0191
  S   H   28    0.1475   -0.1535    0.0701   -0.0610    0.0933   -0.0861   -0.0193   -0.0184
  S   C   29    0.0245   -0.0471   -0.0101   -0.0547   -0.0346    0.0327   -0.0034    0.0114
  Px  C   29   -0.1497    0.0736    0.2688   -0.1318    0.2274   -0.1426   -0.1603    0.1464
  Py  C   29   -0.1112    0.0988    0.1392    0.0242   -0.0950    0.2134    0.3508   -0.2102
  Pz  C   29    0.0142   -0.0107   -0.0204    0.0054   -0.0140    0.0078   -0.0011   -0.0022
  S   C   30    0.0283   -0.0486   -0.0061   -0.0615    0.0185   -0.0266    0.0051   -0.0172
  Px  C   30   -0.1577    0.1624   -0.2284   -0.0661   -0.0410   -0.1098   -0.2494    0.1270
  Py  C   30   -0.0690    0.0395   -0.1409   -0.0661   -0.2549    0.2401    0.3070   -0.2271
  Pz  C   30   -0.0019    0.0020   -0.0073   -0.0028   -0.0128    0.0108    0.0169   -0.0122


   Root No.      81        82        83        84

                81 A      82 A      83 A      84 A   

                12.606    12.677    13.156    14.405
  
  S   C    1    0.0620   -0.0229   -0.0135    0.0430
  Px  C    1    0.1458   -0.2794   -0.1637    0.1171
  Py  C    1    0.0631    0.1333    0.0799    0.0258
  Pz  C    1    0.0034   -0.0177   -0.0102    0.0039
  S   C    2    0.0154    0.0112    0.0076    0.0289
  Px  C    2    0.1966   -0.2981   -0.1714    0.1660
  Py  C    2    0.1292   -0.1136   -0.0505    0.1294
  Pz  C    2    0.0089   -0.0073   -0.0033    0.0083
  S   C    3   -0.0212    0.0082   -0.0038    0.0206
  Px  C    3    0.2040   -0.1863   -0.2491    0.2490
  Py  C    3    0.1176   -0.1726   -0.0029    0.1095
  Pz  C    3    0.0101   -0.0118   -0.0102    0.0119
  S   C    4   -0.0193   -0.0032    0.0071    0.0190
  Px  C    4    0.2751    0.1698    0.1025    0.2209
  Py  C    4    0.1191    0.0207    0.1913    0.1261
  Pz  C    4    0.0209    0.0106    0.0141    0.0173
  S   C    5    0.0109   -0.0156   -0.0126    0.0277
  Px  C    5    0.2854    0.1914    0.1065    0.1943
  Py  C    5    0.1299    0.1412    0.0973    0.0567
  Pz  C    5    0.0238    0.0207    0.0125    0.0145
  S   C    6    0.0694    0.0054    0.0069    0.0439
  Px  C    6    0.1467    0.0108    0.0144    0.0881
  Py  C    6    0.1600    0.2687    0.1651    0.0717
  Pz  C    6    0.0219    0.0023    0.0025    0.0126
  S   C    7   -0.0679    0.0174    0.0176   -0.0023
  Px  C    7    0.1504   -0.1698   -0.2444    0.2674
  Py  C    7   -0.0511   -0.0916   -0.0969    0.1440
  Pz  C    7    0.0076   -0.0063   -0.0099    0.0098
  S   C    8   -0.0569    0.0108   -0.0003    0.0098
  Px  C    8    0.1173    0.1637    0.2178    0.2656
  Py  C    8    0.1759    0.0405    0.1322    0.1306
  Pz  C    8    0.0120    0.0013    0.0059    0.0054
  S   C    9   -0.0597   -0.0082    0.0027   -0.0024
  Px  C    9    0.0446    0.1599    0.2199    0.2687
  Py  C    9   -0.0582   -0.1942    0.1458    0.1370
  Pz  C    9   -0.0033   -0.0052    0.0014    0.0005
  S   C   10   -0.0587    0.0240   -0.0011    0.0012
  Px  C   10   -0.0544    0.1125   -0.2188    0.2708
  Py  C   10   -0.0103   -0.2373   -0.0984    0.1380
  Pz  C   10   -0.0047    0.0074   -0.0123    0.0141
  S   C   11   -0.0625    0.0052   -0.0081   -0.0093
  Px  C   11   -0.1273    0.1380   -0.2239    0.2607
  Py  C   11   -0.2008    0.0596   -0.1410    0.1271
  Pz  C   11    0.0138   -0.0021    0.0043   -0.0001
  S   H   12   -0.0567   -0.0118   -0.0133   -0.0020
  S   C   13   -0.0522    0.0047    0.0131   -0.0090
  Px  C   13   -0.1745   -0.0584    0.2734    0.2361
  Py  C   13    0.0045   -0.0675    0.1187    0.1437
  Pz  C   13   -0.0032   -0.0006    0.0066    0.0046
  S   H   14   -0.0519   -0.0074    0.0174   -0.0013
  S   H   15    0.0746   -0.0256   -0.0128    0.0447
  S   H   16    0.0082    0.0232    0.0235    0.0141
  S   H   17    0.0014   -0.0234   -0.0239    0.0143
  S   H   18    0.0754   -0.0019    0.0018    0.0427
  S   H   19   -0.0418    0.0277   -0.0072    0.0069
  S   H   20   -0.0343    0.0220    0.0124   -0.0068
  S   C   21    0.0154    0.0247   -0.0222   -0.0249
  Px  C   21   -0.2122    0.2011   -0.1245    0.1689
  Py  C   21   -0.0921    0.1796   -0.1419    0.0541
  Pz  C   21    0.0031    0.0001   -0.0010   -0.0044
  S   C   22    0.0604   -0.0012   -0.0051   -0.0354
  Px  C   22   -0.1302    0.0004    0.0144    0.0719
  Py  C   22   -0.0819    0.3088   -0.2422    0.0641
  Pz  C   22    0.0038    0.0110   -0.0096   -0.0009
  S   C   23    0.0730   -0.0076   -0.0105   -0.0415
  Px  C   23   -0.2049   -0.2234    0.2249    0.0988
  Py  C   23   -0.0238    0.1719   -0.1305    0.0237
  Pz  C   23    0.0113    0.0188   -0.0172   -0.0049
  S   C   24    0.0098   -0.0321    0.0232   -0.0235
  Px  C   24   -0.2711   -0.2081    0.2245    0.1473
  Py  C   24   -0.1654   -0.0391    0.0537    0.1164
  Pz  C   24    0.0002    0.0044   -0.0035    0.0017
  S   H   25    0.0090    0.0307   -0.0358   -0.0149
  S   H   26    0.0761   -0.0004   -0.0097   -0.0392
  S   H   27    0.0647   -0.0220    0.0037   -0.0348
  S   H   28    0.0012   -0.0372    0.0384   -0.0109
  S   C   29   -0.0019    0.0031    0.0088   -0.0282
  Px  C   29   -0.2203    0.1815   -0.1207    0.2020
  Py  C   29   -0.1884    0.0361   -0.2083    0.1391
  Pz  C   29    0.0201   -0.0133    0.0144   -0.0177
  S   C   30   -0.0095   -0.0100   -0.0045   -0.0243
  Px  C   30   -0.2149   -0.0584    0.2745    0.2154
  Py  C   30   -0.1971   -0.0974    0.0032    0.1060
  Pz  C   30   -0.0110   -0.0048    0.0006    0.0061


              NET ATOMIC CHARGES AND DIPOLE CONTRIBUTIONS

  ATOM NO.   TYPE          CHARGE      No. of ELECS.   s-Pop       p-Pop       
    1          C          -0.028320        4.0283     1.10613     2.92219
    2          C          -0.023363        4.0234     1.09390     2.92946
    3          C           0.019917        3.9801     1.05641     2.92368
    4          C           0.014396        3.9856     1.06485     2.92075
    5          C          -0.024267        4.0243     1.09807     2.92620
    6          C          -0.033506        4.0335     1.10752     2.92599
    7          C          -0.039568        4.0396     1.11364     2.92593
    8          C          -0.039000        4.0390     1.11238     2.92662
    9          C           0.007547        3.9925     1.07881     2.91364
   10          C           0.006347        3.9937     1.08212     2.91153
   11          C          -0.029516        4.0295     1.10505     2.92447
   12          H           0.023787        0.9762     0.97621
   13          C          -0.036246        4.0362     1.11283     2.92341
   14          H           0.018968        0.9810     0.98103
   15          H           0.027374        0.9726     0.97263
   16          H           0.020778        0.9792     0.97922
   17          H           0.021768        0.9782     0.97823
   18          H           0.026673        0.9733     0.97333
   19          H           0.022566        0.9774     0.97743
   20          H           0.027067        0.9729     0.97293
   21          C          -0.036433        4.0364     1.10672     2.92972
   22          C          -0.018863        4.0189     1.08516     2.93370
   23          C          -0.015809        4.0158     1.08776     2.92804
   24          C          -0.030523        4.0305     1.10437     2.92616
   25          H           0.029862        0.9701     0.97014
   26          H           0.021546        0.9785     0.97845
   27          H           0.022911        0.9771     0.97709
   28          H           0.020613        0.9794     0.97939
   29          C           0.012920        3.9871     1.07376     2.91332
   30          C           0.010374        3.9896     1.07392     2.91571
 DIPOLE           X         Y         Z       TOTAL
 POINT-CHG.     0.149     0.050    -0.090     0.181
 HYBRID        -0.130     0.068    -0.474     0.496
 SUM            0.018     0.118    -0.564     0.577


          ATOMIC ORBITAL ELECTRON POPULATIONS

     Atom    s        px        py        pz   
    1  C   1.10613   0.96823   0.95865   0.99530
    2  C   1.09390   0.96514   0.95571   1.00862
    3  C   1.05641   0.96804   0.97138   0.98426
    4  C   1.06485   0.97154   0.96951   0.97970
    5  C   1.09807   0.97554   0.94715   1.00351
    6  C   1.10752   0.93985   0.98912   0.99702
    7  C   1.11364   0.96064   0.94222   1.02306
    8  C   1.11238   0.96125   0.94900   1.01637
    9  C   1.07881   0.96791   0.96611   0.97963
   10  C   1.08212   0.96994   0.96318   0.97840
   11  C   1.10505   0.96923   0.94616   1.00909
   12  H   0.97621
   13  C   1.11283   0.96807   0.94409   1.01125
   14  H   0.98103
   15  H   0.97263
   16  H   0.97922
   17  H   0.97823
   18  H   0.97333
   19  H   0.97743
   20  H   0.97293
   21  C   1.10672   0.96833   0.95045   1.01094
   22  C   1.08516   0.95209   0.98200   0.99961
   23  C   1.08776   0.99222   0.94355   0.99228
   24  C   1.10437   0.97419   0.95364   0.99833
   25  H   0.97014
   26  H   0.97845
   27  H   0.97709
   28  H   0.97939
   29  C   1.07376   0.96630   0.97021   0.97680
   30  C   1.07392   0.97093   0.96817   0.97660

 **********************
 *                    *
 * JOB ENDED NORMALLY *
 *                    *
 **********************



 TOTAL JOB TIME:             1.63 SECONDS

 == MOPAC DONE ==


          MOPAC Job: "./tetraceneTraj/tetracene_1805.mop" ended normally on Feb 15, 2023, at 11:36.

rm: cannot remove ./tetraceneTraj/tetracene_1805.cim: No such file or directory
rm: cannot remove ./tetraceneTraj/tetracene_1805.end: No such file or directory
rm: cannot remove ./tetraceneTraj/tetracene_1805.log: No such file or directory
rm: cannot remove ./tetraceneTraj/tetracene_1805.temp: No such file or directory
rm: cannot remove ./tetraceneTraj/tetracene_1805.ple: No such file or directory
rm: cannot remove ./tetraceneTraj/tetracene_1805.sts: No such file or directory
