 *******************************************************************************
 ** Site#:    0         For non-commercial use only    Version 20.173L 64BITS **
 *******************************************************************************
 ** Cite this program as: MOPAC2016, Version: 20.173L, James J. P. Stewart,   **
 ** Stewart Computational Chemistry, web-site: HTTP://OpenMOPAC.net.          **
 *******************************************************************************
 **                                                                           **
 **                                MOPAC2016                                  **
 **                                                                           **
 *******************************************************************************

                              INDO CALCULATION RESULTS

 *******************************************************************************
 *  CALCULATION DONE:                                Wed Feb 15 11:32:21 2023  *
 *  INDO       - The INDO Hamiltonian to be used
 *
 *
 *
 *                 CHARGE ON SYSTEM = 0
 *
 *
 *
 *  C.I.=(N,M) - 3 DOUBLY FILLED LEVELS USED IN A C.I. INVOLVING 6 M.O.'S
 *  T=         - A TIME OF 172800.0 SECONDS REQUESTED
 *  DUMP=N     - RESTART FILE WRITTEN EVERY 7200.0 SECONDS REQUESTED
 *  RELSCF     - DEFAULT SCF CRITERION MULTIPLIED BY 0.0000
 *              (DEFAULT SCF CRITERION = 0.00010)
 *  ALLVEC     - PRINT ALL EIGENVECTORS
 **********
 *  WARNING: Specified print options may not behave as expected with INDO
 **********
 *******************************************************************************
INDO C.I.=(6,3) AllVEC CHARGE=0 RELSCF=0.000001


   ATOM   CHEMICAL          X               Y               Z
  NUMBER   SYMBOL      (ANGSTROMS)     (ANGSTROMS)     (ANGSTROMS)
 
     1       C         18.52752124  *  19.48356780  *  22.35513148  *
     2       C         19.92079085  *  19.46019205  *  22.29998047  *
     3       C         20.68433705  *  20.69688026  *  22.41339318  *
     4       C         19.97457446  *  21.98741810  *  22.42423730  *
     5       C         18.49224733  *  21.95308973  *  22.39217022  *
     6       C         17.82090071  *  20.74135162  *  22.40425518  *
     7       C         22.10851025  *  20.65951051  *  22.53133629  *
     8       C         20.73427879  *  23.16728575  *  22.52600429  *
     9       C         22.15289715  *  23.12321088  *  22.58795853  *
    10       C         22.88994352  *  21.85646999  *  22.63466845  *
    11       C         24.33613443  *  21.83110904  *  22.62931233  *
    12       H         24.89819475  *  20.87996712  *  22.72153210  *
    13       C         22.89030575  *  24.34589425  *  22.58979874  *
    14       H         22.57301879  *  19.67541188  *  22.47818704  *
    15       H         17.91058535  *  18.52664524  *  22.31513794  *
    16       H         20.46171890  *  18.45425762  *  22.19342218  *
    17       H         17.94728476  *  22.91970423  *  22.24028415  *
    18       H         16.73265974  *  20.77890544  *  22.35248306  *
    19       H         20.23978965  *  24.17671191  *  22.37532119  *
    20       H         22.36818728  *  25.32917994  *  22.55402584  *
    21       C         26.50978433  *  23.04270115  *  22.49338039  *
    22       C         27.17394133  *  24.25799381  *  22.48596257  *
    23       C         26.42413988  *  25.52341932  *  22.54114412  *
    24       C         25.01660574  *  25.53092663  *  22.62912829  *
    25       H         27.04075675  *  22.04420338  *  22.55501436  *
    26       H         28.26712593  *  24.35038805  *  22.30812157  *
    27       H         26.95206180  *  26.44291519  *  22.55364500  *
    28       H         24.49555057  *  26.49572903  *  22.67374870  *
    29       C         25.04441263  *  23.03020890  *  22.55444592  *
    30       C         24.30817135  *  24.30255319  *  22.56472661  *
 


          CARTESIAN COORDINATES 

    NO.       ATOM           X           Y           Z

     1         C         18.5275     19.4836     22.3551
     2         C         19.9208     19.4602     22.3000
     3         C         20.6843     20.6969     22.4134
     4         C         19.9746     21.9874     22.4242
     5         C         18.4922     21.9531     22.3922
     6         C         17.8209     20.7414     22.4043
     7         C         22.1085     20.6595     22.5313
     8         C         20.7343     23.1673     22.5260
     9         C         22.1529     23.1232     22.5880
    10         C         22.8899     21.8565     22.6347
    11         C         24.3361     21.8311     22.6293
    12         H         24.8982     20.8800     22.7215
    13         C         22.8903     24.3459     22.5898
    14         H         22.5730     19.6754     22.4782
    15         H         17.9106     18.5266     22.3151
    16         H         20.4617     18.4543     22.1934
    17         H         17.9473     22.9197     22.2403
    18         H         16.7327     20.7789     22.3525
    19         H         20.2398     24.1767     22.3753
    20         H         22.3682     25.3292     22.5540
    21         C         26.5098     23.0427     22.4934
    22         C         27.1739     24.2580     22.4860
    23         C         26.4241     25.5234     22.5411
    24         C         25.0166     25.5309     22.6291
    25         H         27.0408     22.0442     22.5550
    26         H         28.2671     24.3504     22.3081
    27         H         26.9521     26.4429     22.5536
    28         H         24.4956     26.4957     22.6737
    29         C         25.0444     23.0302     22.5544
    30         C         24.3082     24.3026     22.5647

           Empirical Formula: C18 H12  =    30 atoms



      MOLECULAR POINT GROUP   :   C1  


      RHF CALCULATION, NO. OF DOUBLY OCCUPIED LEVELS = 42

 WARNING: INDO only performs single-point calculations
  SCF CRITERION =    0.1000E-09

 Summary of symmetry occupancy in each shell:

 SHELL     
    1   42
    v   42
 TOTAL  84




    ROOT NO.    1           2           3           4           5           6

           -44.55955   -42.82042   -40.22622   -36.82569   -35.72249   -34.06054
  
  
  S  C   1   0.10101     0.21990    -0.27215    -0.24467    -0.02915     0.11689
 PX  C   1   0.02672     0.05031    -0.04347    -0.00714    -0.03562     0.08873
 PY  C   1   0.03801     0.07918    -0.08916    -0.06570     0.01838    -0.04138
 PZ  C   1   0.00028     0.00027     0.00035     0.00109     0.00079    -0.00278
  
  S  C   2   0.13020     0.24223    -0.22231    -0.10629    -0.13030     0.29522
 PX  C   2  -0.00269    -0.02909     0.07636     0.10779    -0.04143     0.04427
 PY  C   2   0.05338     0.09060    -0.06389    -0.00135    -0.01659     0.02289
 PZ  C   2   0.00528     0.00907    -0.00659    -0.00067    -0.00417     0.00758
  
  S  C   3   0.24416     0.31875    -0.07777     0.17036    -0.15060     0.22607
 PX  C   3   0.00883    -0.05040     0.13882     0.12874    -0.07405     0.06950
 PY  C   3   0.05208     0.03289     0.06198     0.09870     0.07165    -0.14941
 PZ  C   3   0.00426     0.00125     0.00900     0.01185    -0.00212    -0.00134
  
  S  C   4   0.24145     0.31376    -0.07354     0.17221     0.13110    -0.23018
 PX  C   4   0.05210     0.00561     0.12567     0.15731    -0.02664     0.06818
 PY  C   4  -0.02219    -0.06331     0.08681     0.05817     0.08980    -0.12896
 PZ  C   4   0.00407     0.00189     0.00700     0.01022     0.00222    -0.00356
  
  S  C   5   0.12713     0.23956    -0.22691    -0.12096     0.13518    -0.28348
 PX  C   5   0.04170     0.05890    -0.01368     0.05480     0.02308    -0.03328
 PY  C   5  -0.03097    -0.07314     0.09893     0.09367     0.01218    -0.02111
 PZ  C   5   0.00025    -0.00033     0.00200     0.00321    -0.00067     0.00154
  
  S  C   6   0.10252     0.22391    -0.27919    -0.25561     0.06244    -0.12346
 PX  C   6   0.04530     0.09136    -0.09545    -0.05621     0.00606    -0.00258
 PY  C   6   0.00410     0.00466     0.00412     0.02004     0.03550    -0.09612
 PZ  C   6  -0.00159    -0.00384     0.00551     0.00589    -0.00074     0.00096
  
  S  C   7   0.22480     0.16462     0.14124     0.21475    -0.28343     0.24640
 PX  C   7  -0.02599    -0.07337     0.03894    -0.08313    -0.02264    -0.06212
 PY  C   7   0.07776     0.02791     0.08556     0.05743    -0.00739    -0.04597
 PZ  C   7  -0.00185    -0.00467     0.00338    -0.00431     0.00207    -0.00907
  
  S  C   8   0.22903     0.16384     0.15144     0.23077     0.26211    -0.24948
 PX  C   8   0.05487    -0.01386     0.09550     0.00934     0.02858     0.05764
 PY  C   8  -0.06414    -0.07898    -0.01216    -0.10200     0.02613     0.03481
 PZ  C   8  -0.00323    -0.00518     0.00134    -0.00595    -0.00564     0.01020
  
  S  C   9   0.33669     0.03978     0.30111     0.00935     0.21325    -0.05695
 PX  C   9   0.03388    -0.08785     0.02009    -0.19222    -0.05931     0.08248
 PY  C   9  -0.04155    -0.05538    -0.03720    -0.09894     0.14474     0.00216
 PZ  C   9  -0.00316    -0.00357    -0.00202    -0.00705    -0.00484     0.00373
  
  S  C  10   0.32719     0.03273     0.28865    -0.01956    -0.22160     0.04572
 PX  C  10  -0.02210    -0.09292    -0.02858    -0.19204    -0.07165    -0.04183
 PY  C  10   0.05688    -0.04350     0.04354    -0.09960     0.12265    -0.06051
 PZ  C  10  -0.01091    -0.00447    -0.00910    -0.00692     0.00637    -0.00393
  
  S  C  11   0.24601    -0.11974     0.13387    -0.24305    -0.32995    -0.13192
 PX  C  11  -0.04558    -0.02836    -0.08982     0.01319    -0.00319    -0.08684
 PY  C  11   0.07932    -0.06724     0.01243    -0.10099    -0.00126    -0.04712
 PZ  C  11  -0.00411     0.00185    -0.00130     0.00212     0.00283     0.00226
  
  S  H  12   0.07223    -0.03546     0.03486    -0.06719    -0.16198    -0.06601
  
  S  C  13   0.25665    -0.11726     0.14617    -0.20710     0.33880     0.13269
 PX  C  13   0.03966    -0.07450    -0.04334    -0.08090    -0.00421     0.09601
 PY  C  13  -0.08230     0.00783    -0.08889     0.06251     0.00392     0.05175
 PZ  C  13  -0.00199     0.00016    -0.00120    -0.00005    -0.00379     0.00002
  
  S  H  14   0.06857     0.05160     0.03674     0.05787    -0.14290     0.13086
  
  S  H  15   0.02394     0.05557    -0.07716    -0.08383    -0.01159     0.04793
  
  S  H  16   0.03682     0.06579    -0.05602    -0.02205    -0.06558     0.14025
  
  S  H  17   0.03704     0.06747    -0.06046    -0.02918     0.06600    -0.13818
  
  S  H  18   0.02668     0.06194    -0.08616    -0.09437     0.02751    -0.06010
  
  S  H  19   0.06782     0.04462     0.04405     0.05859     0.13374    -0.11548
  
  S  H  20   0.07739    -0.03491     0.03976    -0.04947     0.16930     0.06435
  
  S  C  21   0.16264    -0.21787    -0.20873     0.11720    -0.21930    -0.26979
 PX  C  21  -0.05502     0.05653     0.01737     0.05266     0.04616     0.03014
 PY  C  21   0.03935    -0.06630    -0.09146     0.10057     0.02223     0.00887
 PZ  C  21   0.00396    -0.00474    -0.00308    -0.00112    -0.00528    -0.00505
  
  S  C  22   0.12977    -0.20102    -0.25299     0.25938    -0.08757    -0.13113
 PX  C  22  -0.05934     0.08524     0.09090    -0.06246     0.01218     0.01157
 PY  C  22  -0.00543     0.00438    -0.00412     0.02501     0.06027     0.08627
 PZ  C  22   0.00180    -0.00242    -0.00210     0.00036     0.00091     0.00215
  
  S  C  23   0.13344    -0.20590    -0.25754     0.26650     0.06661     0.09775
 PX  C  23  -0.03576     0.04774     0.04192    -0.01103    -0.05828    -0.08305
 PY  C  23  -0.04766     0.06985     0.07808    -0.06165     0.02945     0.04606
 PZ  C  23   0.00102    -0.00138    -0.00125     0.00042     0.00330     0.00526
  
  S  C  24   0.17568    -0.23122    -0.21435     0.12671     0.21825     0.26778
 PX  C  24   0.00297    -0.02673    -0.07175     0.11247    -0.05546    -0.04112
 PY  C  24  -0.07003     0.08322     0.05734     0.00094    -0.02267    -0.01727
 PZ  C  24  -0.00516     0.00742     0.00810    -0.00637    -0.00397    -0.00471
  
  S  H  25   0.04692    -0.06009    -0.05276     0.02130    -0.10565    -0.12556
  
  S  H  26   0.03209    -0.05304    -0.07495     0.09287    -0.03296    -0.05326
  
  S  H  27   0.03593    -0.05885    -0.08194     0.10135     0.03103     0.04786
  
  S  H  28   0.05335    -0.06788    -0.05940     0.03316     0.11182     0.13313
  
  S  C  29   0.29406    -0.27480    -0.07275    -0.17066    -0.21532    -0.18680
 PX  C  29  -0.05228    -0.00844    -0.12022     0.15932    -0.04826    -0.08475
 PY  C  29   0.03015    -0.05973    -0.08357     0.07376     0.12956     0.09697
 PZ  C  29   0.00295    -0.00136     0.00355    -0.00764    -0.00184     0.00050
  
  S  C  30   0.30309    -0.28174    -0.07383    -0.15474     0.20380     0.19115
 PX  C  30  -0.00180    -0.05742    -0.13658     0.13437    -0.09294    -0.04686
 PY  C  30  -0.05307     0.01487    -0.06595     0.10723     0.12125     0.12970
 PZ  C  30   0.00292    -0.00266     0.00017    -0.00357     0.00415     0.00537




    ROOT NO.    7           8           9          10          11          12

           -31.65974   -31.25744   -28.73899   -28.15562   -26.88770   -26.02191
  
  
  S  C   1   0.19976     0.24250     0.19281     0.26004    -0.05783     0.19443
 PX  C   1   0.11159    -0.09019     0.11102    -0.15160     0.02062     0.07162
 PY  C   1  -0.06450     0.03109    -0.08442    -0.01441    -0.03989    -0.10135
 PZ  C   1  -0.00537    -0.00121    -0.00704    -0.00101    -0.00222    -0.00782
  
  S  C   2   0.30346    -0.05868     0.17215    -0.11354     0.09656     0.03869
 PX  C   2  -0.04128    -0.12622    -0.13812    -0.11173     0.09259    -0.19040
 PY  C   2  -0.01441    -0.07700    -0.05675    -0.10151    -0.05317    -0.10357
 PZ  C   2   0.00381    -0.00520    -0.00275    -0.00555    -0.00212    -0.00684
  
  S  C   3   0.07295    -0.24455    -0.09666    -0.13315    -0.05611    -0.19176
 PX  C   3  -0.05402     0.04620    -0.14622     0.14592     0.07543    -0.07985
 PY  C   3  -0.10766    -0.01134     0.02421     0.08856    -0.18564     0.09080
 PZ  C   3  -0.00865     0.00352    -0.00939     0.01546    -0.00653    -0.00000
  
  S  C   4  -0.11186    -0.26321     0.12598    -0.11443    -0.10382     0.17756
 PX  C   4   0.10166     0.00288     0.04603     0.17079    -0.10319    -0.06224
 PY  C   4  -0.01021     0.02582     0.09821     0.10119     0.12930     0.12297
 PZ  C   4   0.00090     0.00034     0.00468     0.01230    -0.00616     0.00306
  
  S  C   5  -0.29899    -0.02824    -0.16803    -0.16286     0.11744    -0.02193
 PX  C   5   0.02023    -0.14799     0.14079    -0.12033    -0.05706     0.18475
 PY  C   5   0.00971    -0.08192     0.07107    -0.03348     0.07044     0.10987
 PZ  C   5   0.00299    -0.00291     0.00484     0.00106    -0.00641     0.00355
  
  S  C   6  -0.15668     0.27521    -0.20778     0.21647     0.00815    -0.18874
 PX  C   6   0.01174    -0.02857     0.04858    -0.08960    -0.04320     0.06947
 PY  C   6  -0.14334    -0.07050    -0.13702    -0.15333     0.07844    -0.11228
 PZ  C   6   0.00083    -0.00728     0.00224    -0.00642    -0.00120     0.00205
  
  S  C   7  -0.15076     0.03462    -0.24950     0.10388     0.16648    -0.00236
 PX  C   7  -0.11008     0.14856     0.05177     0.02467     0.07678     0.22057
 PY  C   7  -0.06831     0.09028     0.02696     0.09237    -0.16845     0.09675
 PZ  C   7  -0.00896     0.01411     0.00665     0.00718    -0.00528     0.02107
  
  S  C   8   0.13777    -0.02451     0.21553     0.15030     0.16162     0.03580
 PX  C   8   0.13175     0.15012    -0.05134     0.07789    -0.02565    -0.19821
 PY  C   8   0.07888     0.07648    -0.03018    -0.03906     0.18827    -0.08138
 PZ  C   8   0.00387     0.01178    -0.00954     0.00164    -0.00900    -0.01425
  
  S  C   9   0.21751     0.23465     0.00399     0.00150    -0.05671    -0.18029
 PX  C   9  -0.06271     0.03037    -0.08995    -0.19500    -0.12696     0.03915
 PY  C   9   0.14422    -0.03136    -0.04160    -0.10304     0.23171    -0.08311
 PZ  C   9  -0.00398     0.00347    -0.00317    -0.00656    -0.00759     0.00082
  
  S  C  10  -0.20627     0.26505     0.00266    -0.00188    -0.10372     0.18210
 PX  C  10  -0.06188    -0.02187     0.12446    -0.16449     0.11562     0.07873
 PY  C  10   0.12558     0.01403     0.06238    -0.10049    -0.19711    -0.14173
 PZ  C  10   0.00463    -0.00411     0.00609    -0.00650     0.00450    -0.00009
  
  S  C  11  -0.15676     0.00183     0.25046    -0.08733     0.20447     0.03724
 PX  C  11   0.10720    -0.15853     0.04010     0.09430     0.10401    -0.18128
 PY  C  11   0.05451    -0.07856     0.03463    -0.04103    -0.16108    -0.14432
 PZ  C  11  -0.00221     0.00341     0.00105    -0.00189     0.00596     0.00757
  
  S  H  12  -0.06963    -0.00655     0.11254     0.00588     0.22590     0.04047
  
  S  C  13   0.17304     0.00366    -0.21221    -0.14383     0.18253     0.04096
 PX  C  13  -0.12572    -0.13605    -0.06267     0.00002    -0.14433     0.17096
 PY  C  13  -0.07215    -0.09006    -0.03322     0.09587     0.14169     0.14056
 PZ  C  13  -0.00306     0.00070     0.00188    -0.00016    -0.00468    -0.00019
  
  S  H  14  -0.06258     0.00612    -0.12086     0.00901     0.20444     0.00372
  
  S  H  15   0.09159     0.12718     0.09963     0.17984    -0.01541     0.12401
  
  S  H  16   0.13711    -0.02308     0.07013    -0.03396     0.10680     0.01997
  
  S  H  17  -0.14307    -0.01292    -0.08388    -0.06243     0.11662    -0.00723
  
  S  H  18  -0.08594     0.15010    -0.13467     0.15769     0.03144    -0.14127
  
  S  H  19   0.07160    -0.01156     0.09627     0.03120     0.19742     0.02855
  
  S  H  20   0.07920    -0.00748    -0.09813    -0.01974     0.21746     0.04911
  
  S  C  21   0.26093    -0.05376    -0.20221     0.12591     0.11549     0.07178
 PX  C  21   0.02993     0.13411    -0.11205    -0.13598     0.01617     0.19698
 PY  C  21   0.02872     0.08103    -0.08414    -0.05279    -0.12773     0.08382
 PZ  C  21   0.00157    -0.00698     0.00400     0.00865     0.00515    -0.00848
  
  S  C  22   0.17719     0.25871    -0.18210    -0.25514    -0.04020     0.19973
 PX  C  22   0.00045     0.02190    -0.01519    -0.09136     0.04389     0.07233
 PY  C  22  -0.11162     0.09171     0.16037    -0.13016    -0.03961    -0.12489
 PZ  C  22  -0.00478    -0.00469     0.00816     0.01001    -0.00047    -0.01296
  
  S  C  23  -0.13939     0.27626     0.24856    -0.21630     0.02159    -0.19482
 PX  C  23   0.10451     0.08403    -0.08354    -0.18059    -0.03282     0.06007
 PY  C  23  -0.06885    -0.01363     0.11041    -0.00337     0.09389    -0.09249
 PZ  C  23  -0.00798    -0.00258     0.01061     0.00786     0.00447    -0.01005
  
  S  C  24  -0.26097    -0.03759     0.15843     0.16065     0.12462     0.00137
 PX  C  24  -0.02217     0.13881     0.15709    -0.07740    -0.04312    -0.20352
 PY  C  24  -0.01225     0.08542     0.09668    -0.08001     0.12079    -0.07763
 PZ  C  24   0.00445    -0.00128    -0.00263    -0.00260     0.00240     0.00175
  
  S  H  25   0.11597    -0.03074    -0.08129     0.05241     0.13640     0.04743
  
  S  H  26   0.08155     0.14162    -0.09159    -0.18528     0.00300     0.13821
  
  S  H  27  -0.07450     0.15573     0.15872    -0.16493     0.04994    -0.13268
  
  S  H  28  -0.12547    -0.01385     0.08149     0.06075     0.14555     0.01966
  
  S  C  29   0.05737    -0.24531     0.09056     0.11823    -0.07348    -0.20434
 PX  C  29   0.10261    -0.01631    -0.07804     0.16274     0.12390    -0.01844
 PY  C  29   0.00357    -0.02303    -0.13421     0.06204    -0.20959     0.05837
 PZ  C  29  -0.00516    -0.00193     0.00901    -0.00500     0.00197    -0.00159
  
  S  C  30  -0.07784    -0.23462    -0.12829     0.08956    -0.14298     0.13186
 PX  C  30  -0.05764    -0.03256     0.10792     0.16839    -0.08398    -0.09612
 PY  C  30  -0.08694     0.00206    -0.02808     0.10592     0.17824     0.15072
 PZ  C  30  -0.00451    -0.00382    -0.00029     0.00165     0.00118     0.00575




    ROOT NO.   13          14          15          16          17          18

           -25.11432   -23.89642   -22.66270   -21.39112   -20.60177   -19.16215
  
  
  S  C   1   0.00834     0.11926    -0.01043     0.18151    -0.02933    -0.01231
 PX  C   1   0.05147    -0.24273    -0.02112    -0.05050     0.21404     0.17000
 PY  C   1  -0.14647    -0.00546     0.21106    -0.09055    -0.12421     0.20725
 PZ  C   1  -0.00960     0.00599     0.01357    -0.00202    -0.01593     0.00779
  
  S  C   2   0.17883    -0.17225    -0.13493    -0.15311     0.10877     0.02036
 PX  C   2   0.06535     0.05257    -0.05267    -0.15991    -0.13907    -0.13905
 PY  C   2  -0.17609    -0.00448     0.21642    -0.05676    -0.14738     0.07638
 PZ  C   2  -0.01041     0.00186     0.01626     0.00182    -0.01308     0.01263
  
  S  C   3  -0.14356     0.10112     0.02574    -0.09243    -0.05752    -0.15313
 PX  C   3   0.13329     0.15541    -0.15603     0.10325    -0.00406    -0.01332
 PY  C   3  -0.19791     0.07819     0.01361     0.11547     0.13898    -0.09419
 PZ  C   3  -0.00510     0.01311    -0.00508     0.02040     0.00916     0.00607
  
  S  C   4  -0.08980     0.09702     0.00921     0.10357    -0.05923    -0.14782
 PX  C   4  -0.10165     0.16749    -0.06170    -0.18490     0.08610    -0.06439
 PY  C   4   0.25382     0.09362    -0.14560    -0.01246    -0.09157     0.05454
 PZ  C   4  -0.00196     0.01004    -0.00691    -0.00421     0.00493     0.00618
  
  S  C   5   0.16673    -0.18476    -0.12571     0.10325     0.12237     0.00781
 PX  C   5  -0.07385     0.00148     0.13661     0.19256    -0.16903    -0.01354
 PY  C   5   0.17184     0.02773    -0.17250     0.10571    -0.02042    -0.17860
 PZ  C   5  -0.01081     0.00554     0.01247    -0.00010    -0.00915     0.01038
  
  S  C   6  -0.03928     0.13783     0.01958    -0.15078    -0.06046     0.02106
 PX  C   6  -0.08942    -0.13959     0.16726     0.12575     0.01560     0.24563
 PY  C   6   0.09047    -0.19527    -0.10913    -0.10227     0.23279     0.04638
 PZ  C   6  -0.00271    -0.00292     0.00458     0.00239    -0.00190     0.00608
  
  S  C   7   0.13044     0.09360     0.06394     0.22877    -0.04356     0.14174
 PX  C   7   0.05049    -0.14713     0.16668     0.07932     0.02577     0.15102
 PY  C   7  -0.12759    -0.09964    -0.04659    -0.00305     0.21898    -0.00954
 PZ  C   7  -0.00684    -0.01815     0.01137     0.00715     0.01911     0.01324
  
  S  C   8   0.16094     0.10996     0.06509    -0.18805    -0.08801     0.16485
 PX  C   8  -0.10602    -0.15360     0.06962    -0.08326     0.18292     0.06468
 PY  C   8   0.09117    -0.07629     0.17021    -0.02361    -0.09679     0.12822
 PZ  C   8  -0.01376    -0.01870     0.00093     0.00026     0.02058     0.00200
  
  S  C   9  -0.01899    -0.22416    -0.02774    -0.01398     0.00476    -0.00507
 PX  C   9  -0.00909    -0.04941    -0.12014     0.17551    -0.15219    -0.15546
 PY  C   9   0.02708     0.06595     0.20646     0.10110    -0.08492    -0.09708
 PZ  C   9  -0.00360    -0.01217    -0.00703     0.00375    -0.00095    -0.00861
  
  S  C  10   0.00369    -0.22182    -0.01403    -0.01308    -0.00553     0.00171
 PX  C  10   0.03561     0.05859     0.12838    -0.16583    -0.18818    -0.15136
 PY  C  10  -0.02673    -0.06446    -0.20874    -0.09518    -0.10519    -0.07869
 PZ  C  10  -0.00225    -0.00271     0.00487    -0.01151    -0.00280    -0.01312
  
  S  C  11  -0.10490     0.10176     0.08432    -0.21378     0.05337    -0.15030
 PX  C  11  -0.10337     0.13288    -0.07014     0.06453     0.20387     0.07123
 PY  C  11   0.05218     0.07343    -0.16452     0.05483    -0.10195     0.14968
 PZ  C  11  -0.00333    -0.00375     0.00939    -0.01466     0.00409    -0.02145
  
  S  H  12  -0.11741     0.05310     0.10991    -0.11280     0.15495    -0.14456
  
  S  C  13  -0.11963     0.09022     0.05925     0.20707     0.08822    -0.16191
 PX  C  13   0.00263     0.15104    -0.17584    -0.05992     0.00929     0.15311
 PY  C  13  -0.09538     0.09366     0.04127    -0.03333     0.20915     0.00300
 PZ  C  13  -0.00137    -0.00589    -0.00522    -0.00459    -0.00299    -0.00280
  
  S  H  14   0.15842     0.06479     0.10300     0.13482    -0.14794     0.12484
  
  S  H  15   0.06249     0.14714    -0.11537     0.16426    -0.02365    -0.20882
  
  S  H  16   0.20846    -0.06631    -0.20732    -0.08890     0.09637    -0.08363
  
  S  H  17   0.20408    -0.07845    -0.20564     0.04732     0.10583    -0.10064
  
  S  H  18   0.03726     0.15736    -0.10408    -0.16958    -0.03795    -0.17418
  
  S  H  19   0.16120     0.05672     0.11264    -0.07628    -0.15428     0.14087
  
  S  H  20  -0.11544     0.05331     0.10668     0.09819     0.16171    -0.12889
  
  S  C  21  -0.16217    -0.18345    -0.12700     0.11676    -0.12441    -0.00955
 PX  C  21  -0.08476    -0.00482    -0.11859    -0.15906    -0.21715    -0.00721
 PY  C  21   0.15640    -0.02346     0.15702    -0.10684    -0.03758    -0.17134
 PZ  C  21  -0.00372    -0.00464     0.00021     0.00951     0.00609    -0.00595
  
  S  C  22   0.00711     0.13831     0.00635    -0.16947     0.02724    -0.00245
 PX  C  22  -0.09698     0.13497    -0.15128    -0.10767    -0.01198     0.25161
 PY  C  22   0.08406     0.19632     0.09260     0.04900     0.26734     0.04853
 PZ  C  22   0.00512    -0.01290     0.01042     0.01769     0.00125    -0.02594
  
  S  C  23  -0.00010     0.10172    -0.00197     0.16594     0.05990    -0.02157
 PX  C  23   0.01958     0.24392    -0.00418     0.02583     0.22233     0.16244
 PY  C  23  -0.13663     0.00326    -0.19190     0.13329    -0.11984     0.18664
 PZ  C  23  -0.00477    -0.01418    -0.00536     0.00788    -0.01765    -0.00895
  
  S  C  24  -0.14030    -0.17386    -0.09678    -0.13101    -0.13319    -0.00932
 PX  C  24   0.08013    -0.06823     0.06463     0.15459    -0.11273    -0.16298
 PY  C  24  -0.17095    -0.01689    -0.19457     0.08205    -0.16452     0.06158
 PZ  C  24  -0.00634     0.00233    -0.01018    -0.00122    -0.00560     0.00782
  
  S  H  25  -0.19570    -0.07964    -0.18878     0.06741    -0.10667     0.09596
  
  S  H  26  -0.05095     0.16865    -0.09153    -0.15997     0.02275     0.19361
  
  S  H  27  -0.06755     0.13437    -0.11340     0.17858     0.03801     0.17198
  
  S  H  28  -0.19339    -0.07729    -0.18157    -0.06411    -0.12930     0.08803
  
  S  C  29   0.09603     0.08986     0.00449     0.10199     0.06574     0.14749
 PX  C  29  -0.08490    -0.16348     0.04974     0.15716     0.12601    -0.07659
 PY  C  29   0.22619    -0.07790     0.13119     0.03106    -0.07476     0.02629
 PZ  C  29  -0.00335     0.00807    -0.00307    -0.01525     0.00027    -0.00611
  
  S  C  30   0.11875     0.11601     0.01476    -0.07333     0.05075     0.14761
 PX  C  30   0.15663    -0.14586     0.15832    -0.10551    -0.01379    -0.00250
 PY  C  30  -0.16768    -0.07770    -0.00276    -0.13839     0.12853    -0.07050
 PZ  C  30  -0.00513     0.00005    -0.00607    -0.01153     0.00014     0.00026




    ROOT NO.   19          20          21          22          23          24

           -18.31013   -17.32173   -17.07684   -16.65210   -15.89874   -15.29279
  
  
  S  C   1   0.16011    -0.00221     0.00225     0.11163    -0.06970     0.03472
 PX  C   1  -0.09209     0.17503    -0.02689    -0.00854    -0.19886     0.07885
 PY  C   1  -0.11758    -0.17988     0.06290    -0.08080    -0.15139     0.02517
 PZ  C   1   0.00193    -0.02074     0.00312    -0.00322    -0.01628    -0.00698
  
  S  C   2  -0.16407    -0.01661     0.02729    -0.06181     0.02151     0.02084
 PX  C   2  -0.08491    -0.19342     0.04070    -0.07869     0.23114    -0.08003
 PY  C   2   0.03066    -0.12780     0.10298     0.26220    -0.00264     0.22186
 PZ  C   2   0.01554    -0.01385     0.00607     0.02883    -0.03347     0.01782
  
  S  C   3   0.03902     0.03678     0.06453     0.21734     0.04603     0.02764
 PX  C   3   0.15946    -0.01680     0.01701     0.03380    -0.23833    -0.15402
 PY  C   3   0.03786     0.28063    -0.10992    -0.06986     0.02063    -0.07365
 PZ  C   3   0.02377     0.00663    -0.01059    -0.00612    -0.05254    -0.02464
  
  S  C   4  -0.05832     0.03827    -0.07714    -0.19617     0.10384    -0.01978
 PX  C   4  -0.14909     0.19960    -0.04245     0.05004    -0.13879     0.11453
 PY  C   4  -0.09947    -0.17677     0.02817    -0.11312    -0.19590     0.02991
 PZ  C   4  -0.00665    -0.00602    -0.01722    -0.03739    -0.04054    -0.01808
  
  S  C   5   0.17081    -0.00665    -0.01549     0.06690    -0.00632    -0.02111
 PX  C   5   0.04310    -0.17815     0.00831    -0.18217     0.18360    -0.11536
 PY  C   5   0.11150    -0.10154     0.08819     0.23054     0.11391     0.22038
 PZ  C   5  -0.01337    -0.00530    -0.01309    -0.05210    -0.01645    -0.04573
  
  S  C   6  -0.15066    -0.01971    -0.00025    -0.12195    -0.03222    -0.04999
 PX  C   6   0.16990    -0.05439    -0.02072     0.01981    -0.23883    -0.11036
 PY  C   6  -0.03062     0.23750    -0.08716    -0.03143    -0.07439    -0.08248
 PZ  C   6   0.00039    -0.00441    -0.00613    -0.02030    -0.01425    -0.02548
  
  S  C   7   0.09255     0.05587    -0.02728    -0.05157    -0.07310    -0.02423
 PX  C   7  -0.14911     0.05016    -0.06493    -0.16232     0.19543     0.12938
 PY  C   7  -0.10448     0.06260     0.18973     0.19421     0.04559    -0.08765
 PZ  C   7  -0.01266    -0.00165    -0.00003    -0.00206     0.00108     0.00186
  
  S  C   8  -0.09412     0.00949     0.00134     0.04876    -0.08650     0.01639
 PX  C   8   0.18515     0.06868    -0.14619    -0.00397     0.15743     0.06056
 PY  C   8   0.06227     0.01013     0.14584     0.25159     0.08295    -0.11672
 PZ  C   8   0.02300    -0.01261    -0.02755    -0.02919     0.00414    -0.00041
  
  S  C   9   0.14844    -0.15055    -0.13311    -0.07479     0.07749     0.07366
 PX  C   9  -0.04963    -0.13074     0.07122    -0.04617    -0.07378    -0.03766
 PY  C   9   0.05480     0.20790    -0.14007    -0.00783     0.08754     0.04110
 PZ  C   9   0.00838    -0.03432    -0.00824    -0.01799    -0.00592    -0.00361
  
  S  C  10  -0.13722    -0.08349     0.19487     0.06078     0.08292    -0.05774
 PX  C  10  -0.06057     0.13812    -0.01041     0.05727     0.03795    -0.00575
 PY  C  10   0.08847    -0.23954    -0.00419    -0.05836    -0.10953    -0.01191
 PZ  C  10   0.00346    -0.02180    -0.01910    -0.00166    -0.00876     0.00490
  
  S  C  11   0.08820     0.01581    -0.05036     0.02996    -0.08768    -0.01102
 PX  C  11   0.18339    -0.10834    -0.11092    -0.08289    -0.11841     0.02095
 PY  C  11   0.07156     0.09137     0.27318    -0.08135    -0.05186    -0.20795
 PZ  C  11   0.00240    -0.02060    -0.03838     0.01172    -0.01408     0.01232
  
  S  H  12   0.06518    -0.10482    -0.28695     0.04044    -0.06103     0.15630
  
  S  C  13  -0.10345     0.05512     0.03404    -0.04430    -0.08017    -0.01482
 PX  C  13  -0.13630    -0.11500    -0.13790     0.06165    -0.17108     0.14528
 PY  C  13  -0.10276     0.04222     0.28913     0.01542    -0.02600    -0.14702
 PZ  C  13   0.01069    -0.02151    -0.01151    -0.01026    -0.00311     0.00136
  
  S  H  14   0.06728    -0.00294    -0.19003    -0.24499    -0.00127     0.10354
  
  S  H  15   0.19817     0.04621    -0.03140     0.11744     0.17208    -0.03793
  
  S  H  16  -0.13322     0.00812    -0.05374    -0.27110     0.11184    -0.19623
  
  S  H  17   0.14528    -0.00544     0.06005     0.29126     0.00214     0.21223
  
  S  H  18  -0.21264     0.03977     0.01655    -0.07599     0.18849     0.07432
  
  S  H  19  -0.06825    -0.00244     0.18150     0.22823    -0.04474    -0.11201
  
  S  H  20  -0.07089     0.10928     0.30167    -0.03454     0.00319    -0.17898
  
  S  C  21  -0.16730    -0.01888    -0.02459     0.05727    -0.00401     0.02948
 PX  C  21   0.01962     0.13953    -0.19676     0.13476    -0.12377    -0.16915
 PY  C  21   0.08741     0.14840     0.15841    -0.13465    -0.17672     0.25734
 PZ  C  21  -0.00987    -0.02079    -0.01503     0.00859    -0.01565    -0.01182
  
  S  C  22   0.16103     0.02109     0.07411    -0.08862    -0.04609     0.03469
 PX  C  22   0.17194     0.07801    -0.03227    -0.00088     0.25691    -0.11141
 PY  C  22   0.01377    -0.23814     0.03141    -0.02313     0.08655    -0.09982
 PZ  C  22  -0.02907    -0.01860    -0.01185     0.01153    -0.04244     0.00103
  
  S  C  23  -0.15808    -0.04450    -0.06811     0.07343    -0.06350    -0.05526
 PX  C  23  -0.08203    -0.14801     0.06861     0.01419     0.13122     0.18216
 PY  C  23  -0.14782     0.16313    -0.07562     0.10864     0.13916     0.09802
 PZ  C  23  -0.00680     0.00891    -0.01161     0.00474    -0.02057    -0.00537
  
  S  C  24   0.17113    -0.00126     0.02247    -0.06171     0.02043    -0.03768
 PX  C  24  -0.08903     0.12963    -0.11843     0.05030    -0.16499    -0.18648
 PY  C  24   0.03787     0.19041     0.19612    -0.16428    -0.05701     0.25541
 PZ  C  24   0.00699     0.00023     0.00805    -0.01113    -0.00469     0.02227
  
  S  H  25  -0.13590    -0.07144    -0.21936     0.18523     0.07491    -0.25479
  
  S  H  26   0.21976     0.06061     0.01560    -0.04930     0.21009    -0.08279
  
  S  H  27  -0.21610     0.03169    -0.05930     0.12218     0.12748     0.12653
  
  S  H  28   0.14489     0.08961     0.21493    -0.17599     0.03610     0.25365
  
  S  C  29   0.05231     0.10769     0.17265    -0.08716     0.09308     0.02882
 PX  C  29  -0.12444    -0.20153     0.09008    -0.06003     0.08246     0.17063
 PY  C  29  -0.11652     0.12946    -0.11677     0.09134     0.16502     0.11633
 PZ  C  29   0.01658    -0.01323    -0.02443     0.00638    -0.02685    -0.02116
  
  S  C  30  -0.05120    -0.01539    -0.19527     0.12486     0.06610     0.01228
 PX  C  30   0.15097     0.05602     0.02928     0.01986     0.23314    -0.13832
 PY  C  30   0.05857    -0.27993    -0.01317     0.01413    -0.00153    -0.09672
 PZ  C  30   0.01176    -0.02315    -0.01443    -0.00135    -0.00976    -0.00582




    ROOT NO.   25          26          27          28          29          30

           -14.86603   -14.80971   -14.76848   -14.59226   -13.61982   -13.43132
  
  
  S  C   1  -0.00014    -0.05211    -0.00701    -0.00593    -0.04173    -0.02885
 PX  C   1   0.26297     0.00799    -0.02998     0.11482    -0.06980    -0.01189
 PY  C   1   0.04897     0.00435     0.28052    -0.03953     0.01335    -0.18806
 PZ  C   1  -0.04290    -0.01706     0.01872     0.10816    -0.13833     0.17087
  
  S  C   2   0.05049     0.02948     0.09053     0.01412     0.03168     0.01378
 PX  C   2  -0.24071     0.01828     0.07516    -0.09434     0.08252     0.05303
 PY  C   2   0.14701    -0.13190     0.03267     0.03445     0.00670     0.12767
 PZ  C   2  -0.02217    -0.03582     0.00872     0.15687    -0.15891     0.19924
  
  S  C   3  -0.01108     0.02714    -0.07123     0.01739    -0.03192    -0.00623
 PX  C   3  -0.12150     0.10442     0.02666    -0.03043    -0.14481    -0.18366
 PY  C   3   0.03839     0.06077    -0.15888    -0.00395     0.03386    -0.10446
 PZ  C   3  -0.07433    -0.01731     0.01580     0.24980    -0.18560     0.20344
  
  S  C   4   0.04806    -0.00913    -0.01542     0.01229    -0.00358    -0.01629
 PX  C   4   0.13203    -0.11598    -0.05657     0.00130    -0.10826    -0.14051
 PY  C   4   0.02583    -0.06723     0.18178    -0.00807    -0.15125    -0.08323
 PZ  C   4  -0.08320    -0.04370     0.02694     0.24328    -0.18662     0.21302
  
  S  C   5  -0.10409    -0.03327     0.00962    -0.03630     0.00410     0.01681
 PX  C   5  -0.07115     0.11930     0.06602     0.00071     0.11765     0.10788
 PY  C   5   0.17133    -0.09634     0.21521     0.03488     0.08907    -0.00246
 PZ  C   5  -0.07182     0.00220    -0.00982     0.14145    -0.15421     0.19318
  
  S  C   6  -0.00467     0.04603     0.02609     0.00352    -0.02575    -0.03718
 PX  C   6  -0.24186    -0.04359     0.01785    -0.12556    -0.09649    -0.16055
 PY  C   6  -0.04380     0.02095    -0.27622     0.02548    -0.09273     0.07533
 PZ  C   6  -0.05455    -0.00623    -0.00268     0.10858    -0.14234     0.17755
  
  S  C   7   0.06586     0.03420    -0.00856     0.03198     0.03670     0.01118
 PX  C   7   0.16458    -0.07734     0.00827    -0.00210     0.19355     0.15244
 PY  C   7  -0.03651     0.30940     0.15160     0.02360     0.08740     0.00749
 PZ  C   7  -0.05412    -0.00789     0.03466     0.24465    -0.05916     0.12767
  
  S  C   8  -0.04045    -0.02282    -0.05884     0.00299     0.00108     0.03538
 PX  C   8  -0.14219    -0.20247     0.05418    -0.10918     0.17354     0.09806
 PY  C   8  -0.05412     0.26082    -0.20142     0.03332     0.12692     0.09762
 PZ  C   8  -0.09122    -0.06867     0.03901     0.23271    -0.07166     0.13001
  
  S  C   9  -0.00074    -0.02848     0.00141    -0.01586    -0.00616     0.00821
 PX  C   9   0.16847     0.22063    -0.06508     0.07801    -0.16657    -0.11624
 PY  C   9   0.08886     0.10749    -0.04189     0.06472    -0.05219    -0.13117
 PZ  C   9  -0.08865    -0.04934     0.02489     0.32282    -0.00525     0.01483
  
  S  C  10  -0.01406    -0.00171    -0.01715     0.02482    -0.02865     0.00111
 PX  C  10  -0.07002    -0.23415    -0.16571    -0.04092    -0.17177    -0.15941
 PY  C  10  -0.03396    -0.13002    -0.08128    -0.04031    -0.12163    -0.02019
 PZ  C  10  -0.09556    -0.04467     0.02226     0.31425    -0.00671     0.00508
  
  S  C  11  -0.06901    -0.02376     0.01702    -0.03480    -0.00328    -0.00060
 PX  C  11   0.06557     0.21225     0.15631     0.01908     0.18353     0.16141
 PY  C  11   0.10491    -0.21903    -0.09974     0.01390     0.17909     0.09928
 PZ  C  11  -0.08546    -0.01293     0.02324     0.24997     0.08387    -0.11076
  
  S  H  12  -0.08283     0.24270     0.15046    -0.00018    -0.05297    -0.01595
  
  S  C  13   0.05347     0.02355     0.07667     0.01986    -0.01802    -0.01187
 PX  C  13  -0.07148     0.06929    -0.10807    -0.05697     0.16676     0.17803
 PY  C  13  -0.11938    -0.25623     0.15407    -0.05776     0.04565     0.08852
 PZ  C  13  -0.06494    -0.04013     0.00129     0.25805     0.08931    -0.10077
  
  S  H  14   0.11712    -0.25272    -0.11328    -0.02041     0.03076     0.05467
  
  S  H  15  -0.16401    -0.03427    -0.20835    -0.03211     0.01127     0.14456
  
  S  H  16  -0.19198     0.12100     0.04650    -0.07855     0.06766    -0.09097
  
  S  H  17   0.12222    -0.13738     0.14125    -0.00738     0.04354    -0.06628
  
  S  H  18   0.22077     0.06310    -0.00924     0.11365     0.08432     0.13071
  
  S  H  19   0.00485     0.27713    -0.20299     0.04355     0.04457     0.04021
  
  S  H  20  -0.03644    -0.20667     0.19071    -0.01574    -0.04752    -0.01185
  
  S  C  21  -0.04648    -0.04745    -0.07622    -0.02170    -0.02970    -0.01403
 PX  C  21  -0.04393    -0.09107     0.09108    -0.02586     0.18945     0.07945
 PY  C  21  -0.22033     0.06967     0.07498    -0.05163     0.06718     0.09390
 PZ  C  21  -0.03749    -0.03042    -0.01760     0.16046     0.17642    -0.16347
  
  S  C  22   0.01909     0.04081    -0.00134     0.01188     0.05298     0.01935
 PX  C  22   0.13646     0.07635     0.18700     0.06609    -0.16502    -0.07514
 PY  C  22   0.20008    -0.02271    -0.19530     0.05108    -0.03211    -0.08977
 PZ  C  22  -0.04811    -0.03778    -0.03745     0.11478     0.18827    -0.13910
  
  S  C  23  -0.00300    -0.04642    -0.01290    -0.02085     0.04838     0.04574
 PX  C  23  -0.16741    -0.06818    -0.21582    -0.00133    -0.01965    -0.11887
 PY  C  23  -0.21013    -0.00336     0.17748    -0.03604    -0.10485    -0.00087
 PZ  C  23  -0.03338    -0.01879     0.00268     0.12148     0.16011    -0.14056
  
  S  C  24   0.09048     0.02913    -0.03215     0.03018    -0.01621    -0.03144
 PX  C  24   0.12905     0.04001     0.21846     0.00098     0.06629     0.12302
 PY  C  24  -0.05526     0.11802    -0.03322     0.00402     0.04705     0.00127
 PZ  C  24  -0.05221    -0.02052    -0.02028     0.17196     0.16849    -0.17971
  
  S  H  25   0.13014    -0.11071    -0.05623     0.02633     0.01998    -0.05992
  
  S  H  26   0.14855     0.09455     0.16059     0.05336    -0.16344    -0.05060
  
  S  H  27  -0.24048    -0.05785     0.03585    -0.03861    -0.07132    -0.03654
  
  S  H  28  -0.05818     0.08127    -0.13090     0.02533     0.00154    -0.08389
  
  S  C  29   0.01070     0.00028     0.05606     0.01955     0.00354     0.00325
 PX  C  29   0.00313     0.07391    -0.12922     0.02321    -0.18908    -0.09516
 PY  C  29  -0.11420     0.07198     0.11538     0.02632    -0.16026    -0.15618
 PZ  C  29  -0.07038    -0.04172     0.00736     0.27135     0.21645    -0.19149
  
  S  C  30  -0.05833     0.02796     0.03094    -0.02181     0.01422     0.02279
 PX  C  30   0.01213    -0.08652     0.09775     0.04210    -0.15720    -0.16543
 PY  C  30   0.05932    -0.08352    -0.15676    -0.02441    -0.03410     0.02121
 PZ  C  30  -0.06929    -0.04539    -0.01320     0.27862     0.19927    -0.20759




    ROOT NO.   31          32          33          34          35          36

           -13.13058   -12.84156   -12.29960   -11.88145   -11.71995   -11.29396
  
  
  S  C   1  -0.00123     0.00298     0.00186     0.00024     0.00530     0.01189
 PX  C   1   0.14111    -0.22024    -0.08700    -0.04721    -0.05794     0.12683
 PY  C   1  -0.17450    -0.16234     0.14655     0.11137     0.05260     0.04005
 PZ  C   1  -0.10467    -0.04616    -0.02202    -0.07347     0.33696     0.04709
  
  S  C   2  -0.02449    -0.00726    -0.01673    -0.03698    -0.01065    -0.03211
 PX  C   2  -0.14349     0.22599     0.05826     0.01133     0.06458    -0.14459
 PY  C   2   0.11432     0.17132    -0.15412    -0.14875    -0.08858    -0.10077
 PZ  C   2  -0.07906    -0.04981    -0.03705    -0.06049     0.23705     0.04251
  
  S  C   3  -0.00684     0.02421     0.01451     0.00468     0.00221     0.01141
 PX  C   3   0.01063    -0.19860    -0.07742    -0.11644    -0.12928     0.17737
 PY  C   3  -0.02622    -0.14982     0.19068     0.24291     0.11545     0.08646
 PZ  C   3  -0.12093    -0.09380     0.02688     0.03780     0.07608     0.02982
  
  S  C   4   0.02591    -0.03983    -0.00411    -0.00449     0.00094    -0.02093
 PX  C   4  -0.06539     0.17413     0.13921     0.12013     0.13245    -0.19489
 PY  C   4   0.01729     0.09139    -0.16603    -0.24555    -0.11280    -0.11922
 PZ  C   4  -0.12791    -0.04113     0.01796    -0.00167     0.04967    -0.02326
  
  S  C   5  -0.03272     0.02013    -0.01692    -0.03314    -0.01266     0.03065
 PX  C   5   0.07914    -0.20408    -0.12690    -0.09974    -0.12780     0.18347
 PY  C   5  -0.12611    -0.16191     0.10804     0.09557     0.07992     0.07147
 PZ  C   5  -0.07919    -0.03867    -0.04379    -0.08871     0.21427     0.01976
  
  S  C   6  -0.01548    -0.02044     0.00968     0.00042     0.01538    -0.01088
 PX  C   6  -0.13928     0.19258     0.10118     0.05187     0.06168    -0.12096
 PY  C   6   0.17203     0.17616    -0.13136    -0.10475    -0.06651    -0.07704
 PZ  C   6  -0.09105    -0.03788    -0.03678    -0.09466     0.32192     0.03765
  
  S  C   7   0.00240    -0.07292    -0.00492    -0.04491    -0.03379    -0.02381
 PX  C   7  -0.01851     0.16349     0.06419     0.06457     0.11151    -0.19612
 PY  C   7  -0.17192    -0.00389    -0.03062    -0.20180    -0.05966    -0.12549
 PZ  C   7  -0.07905    -0.00772     0.06144     0.10477    -0.10490    -0.05156
  
  S  C   8  -0.02844     0.07715     0.00940    -0.02788    -0.03891     0.02018
 PX  C   8  -0.11963    -0.07876    -0.00959    -0.07700    -0.07247     0.23020
 PY  C   8   0.07164    -0.09410     0.08389     0.18814     0.06064     0.11445
 PZ  C   8  -0.08537    -0.02048     0.05433     0.05496    -0.16127    -0.02544
  
  S  C   9   0.04879    -0.05233    -0.01518    -0.00312     0.00819    -0.00335
 PX  C   9   0.15650     0.01648     0.00488     0.10016     0.11994    -0.23106
 PY  C   9  -0.22283    -0.08812     0.08942    -0.24492    -0.07440    -0.16316
 PZ  C   9  -0.00265     0.02859     0.10098     0.14799    -0.29115    -0.07557
  
  S  C  10   0.01709     0.05639     0.01489     0.00689    -0.00646     0.01012
 PX  C  10  -0.11288    -0.04971     0.07412    -0.10795    -0.07452     0.21190
 PY  C  10   0.26887    -0.00871    -0.05249     0.24758     0.08657     0.13685
 PZ  C  10  -0.00728     0.03222     0.08887     0.17786    -0.26877    -0.03325
  
  S  C  11   0.01266    -0.07546     0.01952    -0.03887    -0.01770     0.00704
 PX  C  11   0.11581    -0.00586    -0.05490     0.08141     0.06801    -0.21469
 PY  C  11  -0.04481    -0.09334     0.16020    -0.12446    -0.03260    -0.12051
 PZ  C  11   0.05323     0.05665     0.01603     0.08945    -0.10510     0.01778
  
  S  H  12   0.10011     0.04323    -0.16786     0.15658     0.05134     0.00223
  
  S  C  13  -0.02451     0.07739     0.03203    -0.04879    -0.01478    -0.00811
 PX  C  13  -0.07641     0.12903     0.11405    -0.02016    -0.05490     0.25112
 PY  C  13   0.13923     0.06009    -0.12411     0.16418     0.01984     0.14963
 PZ  C  13   0.03805     0.04382     0.07042     0.02485    -0.13909    -0.04107
  
  S  H  14   0.14133     0.03798     0.05058     0.20200     0.10240     0.01899
  
  S  H  15   0.07689     0.26094    -0.07862    -0.06797    -0.02440    -0.10669
  
  S  H  16  -0.16535    -0.03747     0.16646     0.14268     0.09276     0.00050
  
  S  H  17  -0.14770    -0.02363     0.15930     0.14163     0.10726    -0.01683
  
  S  H  18   0.13673    -0.19458    -0.09728    -0.04790    -0.07168     0.11890
  
  S  H  19   0.11001    -0.00765     0.07686     0.20716     0.10126     0.01472
  
  S  H  20   0.13782     0.02934    -0.16026     0.15423     0.04729     0.01078
  
  S  C  21  -0.01737    -0.02333     0.03198    -0.01350    -0.02287     0.02921
 PX  C  21  -0.02944    -0.16820    -0.17689     0.07245     0.01715    -0.20236
 PY  C  21   0.17824    -0.08091     0.14883    -0.06756     0.02300    -0.06476
 PZ  C  21   0.04859     0.04714    -0.06213    -0.11034     0.20024     0.07282
  
  S  C  22  -0.01572     0.00931    -0.01163    -0.00645     0.01639    -0.01214
 PX  C  22   0.11340     0.18336     0.12585    -0.06500     0.03695     0.14461
 PY  C  22  -0.23953     0.07897    -0.16789     0.07345    -0.03256     0.07112
 PZ  C  22   0.02718     0.01245    -0.09347    -0.13771     0.25438     0.06468
  
  S  C  23  -0.02505     0.00160    -0.00653     0.01484    -0.01904     0.01684
 PX  C  23  -0.03748    -0.22625    -0.12621     0.01894     0.02704    -0.16844
 PY  C  23   0.26514    -0.07532     0.18009    -0.07594     0.02754    -0.04384
 PZ  C  23   0.05372     0.05272    -0.04675    -0.15903     0.24455     0.09453
  
  S  C  24  -0.01465    -0.00405     0.03238    -0.03723     0.01173    -0.03753
 PX  C  24   0.01406     0.24160     0.07833    -0.00609    -0.01540     0.20038
 PY  C  24  -0.19322     0.10945    -0.20642     0.11661    -0.03660     0.10830
 PZ  C  24   0.04702     0.05222    -0.04512    -0.13116     0.17987     0.06429
  
  S  H  25  -0.17120    -0.01779    -0.21855     0.09605    -0.01164    -0.02517
  
  S  H  26   0.08510     0.18780     0.12335    -0.04225     0.00481     0.14198
  
  S  H  27   0.19237    -0.17179     0.08698    -0.04920     0.03148    -0.11741
  
  S  H  28  -0.16853    -0.01966    -0.21617     0.09265    -0.00850    -0.01928
  
  S  C  29   0.00268     0.03823     0.00111    -0.00752     0.00475    -0.01044
 PX  C  29   0.04579     0.14277     0.19940    -0.08998    -0.01636     0.21394
 PY  C  29  -0.02867     0.07814    -0.26383     0.16030     0.01348     0.11462
 PZ  C  29   0.08771     0.06018    -0.00657    -0.04625     0.06337     0.02425
  
  S  C  30  -0.00085    -0.02526    -0.01922     0.01079    -0.00562     0.01677
 PX  C  30   0.11085    -0.16260    -0.14344     0.05799     0.06057    -0.23617
 PY  C  30   0.11906    -0.13621     0.28526    -0.16830     0.00415    -0.10700
 PZ  C  30   0.08470     0.06395     0.03055    -0.08872     0.04882     0.01691




    ROOT NO.   37          38          39          40          41          42

           -10.61436    -9.86050    -9.64322    -8.26618    -8.10746    -6.68675
  
  
  S  C   1  -0.00455    -0.00800     0.00613    -0.00223     0.00777    -0.00351
 PX  C   1  -0.00687    -0.02195     0.00632    -0.00881     0.01672    -0.00647
 PY  C   1  -0.01352     0.01494     0.01248     0.01496    -0.00949     0.00836
 PZ  C   1   0.07670    -0.33690    -0.13495    -0.30385     0.17262    -0.20645
  
  S  C   2   0.00170    -0.00151     0.00394     0.00782     0.00012     0.00572
 PX  C   2   0.01966     0.00620    -0.02445    -0.01179    -0.01608    -0.00634
 PY  C   2  -0.00856     0.00978     0.03411     0.04031     0.00861     0.02350
 PZ  C   2   0.17435    -0.12273    -0.33009    -0.34815    -0.10863    -0.21539
  
  S  C   3  -0.01343     0.00555     0.01208     0.00201     0.00048    -0.00017
 PX  C   3  -0.01517    -0.02786     0.02150    -0.00904     0.03707    -0.00850
 PY  C   3  -0.03355    -0.00510     0.02440    -0.00382     0.01499    -0.01171
 PZ  C   3   0.18987     0.24659    -0.28390     0.05152    -0.32325     0.16244
  
  S  C   4   0.01792    -0.00709    -0.01702    -0.01002     0.00889     0.00128
 PX  C   4   0.00437     0.00109    -0.00025     0.00009     0.01234     0.00724
 PY  C   4   0.04064    -0.02023    -0.02229    -0.00597     0.02151     0.01191
 PZ  C   4  -0.20101     0.29140     0.21301     0.15188    -0.32819    -0.11570
  
  S  C   5  -0.00497    -0.00756     0.01394     0.01751     0.00277     0.01228
 PX  C   5   0.01271    -0.00726    -0.02256    -0.01605    -0.00586    -0.00913
 PY  C   5  -0.03297    -0.00789     0.04568     0.03781     0.00583     0.02070
 PZ  C   5  -0.17772    -0.09168     0.35372     0.34817     0.09208     0.22928
  
  S  C   6   0.00157    -0.01259     0.00113    -0.00211     0.01284     0.00304
 PX  C   6   0.00621     0.01088    -0.00762    -0.00495    -0.00523    -0.00322
 PY  C   6   0.01708     0.00446    -0.01845    -0.01480    -0.00119    -0.00861
 PZ  C   6  -0.08787    -0.32138     0.22719     0.14557     0.30481     0.16526
  
  S  C   7   0.01096    -0.00300    -0.00110     0.00569     0.00648     0.00400
 PX  C   7  -0.01916    -0.01049     0.01929    -0.01224    -0.01676    -0.03091
 PY  C   7  -0.00912    -0.02126     0.01390    -0.02045    -0.00793    -0.02901
 PZ  C   7   0.32015     0.17416    -0.25944     0.21357     0.09173     0.36293
  
  S  C   8  -0.02095     0.01553     0.01236    -0.01580    -0.00830    -0.02748
 PX  C   8   0.03478    -0.04100    -0.02296     0.02137     0.00948     0.04054
 PY  C   8  -0.03811     0.01039     0.01410    -0.00679    -0.00573    -0.01109
 PZ  C   8  -0.31522     0.22984     0.21664    -0.18267    -0.07764    -0.36929
  
  S  C   9   0.00416     0.00124    -0.00264     0.00330     0.00009     0.00971
 PX  C   9  -0.00177     0.02696     0.00531     0.00461    -0.01658    -0.01428
 PY  C   9   0.02936    -0.00434     0.00741    -0.00525     0.01732    -0.00975
 PZ  C   9  -0.25394    -0.00582     0.03754    -0.30940     0.29365    -0.02226
  
  S  C  10   0.01844     0.00160     0.00234     0.00371     0.01548    -0.00876
 PX  C  10   0.00477    -0.00234     0.00627    -0.00194    -0.01066     0.00898
 PY  C  10  -0.03204     0.01696    -0.00160     0.00199    -0.01240     0.00997
 PZ  C  10   0.27894    -0.02319    -0.02074     0.13205     0.41283    -0.02261
  
  S  C  11  -0.00507     0.00235    -0.00604    -0.00119     0.00104     0.00736
 PX  C  11  -0.00751     0.00192    -0.00596     0.00240     0.00774    -0.00878
 PY  C  11   0.05479    -0.02120     0.02003     0.02093     0.00919    -0.03609
 PZ  C  11   0.35849    -0.20293     0.20621     0.19979     0.00740    -0.37132
  
  S  H  12  -0.02855     0.00453    -0.00819    -0.00078    -0.00706     0.00205
  
  S  C  13  -0.00522    -0.00901    -0.00375    -0.00574    -0.00351     0.00696
 PX  C  13  -0.00750    -0.01289    -0.00055    -0.00097    -0.00494     0.00805
 PY  C  13  -0.02553    -0.00691    -0.01080    -0.00031    -0.00559     0.01281
 PZ  C  13  -0.33577    -0.22631    -0.14784    -0.23247    -0.02926     0.38057
  
  S  H  14  -0.01233     0.00662     0.00582     0.00643    -0.00536    -0.00198
  
  S  H  15   0.01275     0.01086    -0.01050     0.00073    -0.00848     0.00181
  
  S  H  16   0.00151     0.00691    -0.01296    -0.00981    -0.00947    -0.00548
  
  S  H  17  -0.01675     0.00754     0.01318     0.00504    -0.00586    -0.00265
  
  S  H  18  -0.00182    -0.00055    -0.00282    -0.00309    -0.00603    -0.00483
  
  S  H  19  -0.02270     0.00790     0.00157     0.00335    -0.00513     0.01064
  
  S  H  20  -0.01431     0.00310    -0.00564     0.00515    -0.00610    -0.00199
  
  S  C  21  -0.00643    -0.01568    -0.01189     0.01861    -0.00445    -0.01342
 PX  C  21  -0.00709    -0.00893    -0.00796     0.00105     0.00325     0.00002
 PY  C  21   0.01256     0.00701     0.01025    -0.00827    -0.00290     0.00539
 PZ  C  21   0.21739     0.19685     0.31113    -0.32562    -0.06944     0.23920
  
  S  C  22   0.00657     0.02426     0.00943    -0.01792     0.01502     0.01145
 PX  C  22   0.01555     0.05728     0.02276    -0.03376     0.02396     0.02090
 PY  C  22  -0.00995    -0.01436    -0.00761     0.01034    -0.00357    -0.00772
 PZ  C  22   0.09217     0.38948     0.13920    -0.25894     0.21606     0.16668
  
  S  C  23  -0.00464    -0.01789    -0.00223     0.00123    -0.00948     0.00469
 PX  C  23  -0.00340     0.01261    -0.01510     0.01856     0.01611    -0.02220
 PY  C  23   0.01348     0.00704     0.01202    -0.01013    -0.00554     0.00914
 PZ  C  23  -0.12158     0.32139    -0.20622     0.16685     0.30934    -0.22787
  
  S  C  24  -0.00093     0.00975    -0.00991     0.01298     0.00652    -0.01186
 PX  C  24  -0.01979     0.00082    -0.01511     0.00880     0.00253    -0.00341
 PY  C  24   0.00197    -0.01509     0.01955    -0.02175    -0.00790     0.01534
 PZ  C  24  -0.24034     0.06235    -0.34153     0.33054     0.07027    -0.22629
  
  S  H  25  -0.00993    -0.00967    -0.00445    -0.00010    -0.00269     0.00265
  
  S  H  26   0.00447     0.00837     0.00666    -0.00139    -0.00557    -0.00075
  
  S  H  27   0.00747     0.00839     0.00069     0.00245     0.00234    -0.00445
  
  S  H  28  -0.00020    -0.00869     0.00668    -0.00542    -0.00623     0.00306
  
  S  C  29   0.00628     0.00402     0.00502    -0.00716     0.00573     0.00428
 PX  C  29   0.02201     0.00228     0.02437    -0.00562    -0.02054     0.00073
 PY  C  29  -0.02221    -0.00736     0.00003    -0.00566    -0.02092     0.01078
 PZ  C  29   0.24515    -0.22208     0.24675     0.03376    -0.34962    -0.11299
  
  S  C  30   0.00092     0.00865     0.00355    -0.00520     0.01203    -0.00246
 PX  C  30  -0.00131     0.00969    -0.00302    -0.00165     0.00149     0.00078
 PY  C  30   0.03258     0.02044     0.01209     0.00096     0.01723    -0.01235
 PZ  C  30  -0.23000    -0.27794    -0.20124     0.10414    -0.30016     0.16636




    ROOT NO.   43          44          45          46          47          48

            -1.03296     0.22816     0.29600     1.23726     1.36657     1.77843
  
  
  S  C   1  -0.00140     0.01859    -0.00494    -0.01864    -0.02855     0.01268
 PX  C   1  -0.01069    -0.00025    -0.01116     0.00475    -0.00324    -0.00367
 PY  C   1   0.01592     0.00825     0.01911    -0.01471     0.00656     0.00892
 PZ  C   1  -0.20293     0.03834    -0.34352     0.14055    -0.34704    -0.07551
  
  S  C   2   0.00092    -0.01067    -0.00214     0.01599     0.00444    -0.01085
 PX  C   2   0.01106     0.00663     0.00773    -0.00756    -0.00319     0.00517
 PY  C   2  -0.01696    -0.02439    -0.02653     0.03676    -0.01224    -0.02090
 PZ  C   2   0.22431     0.22985     0.28014    -0.32380     0.12934     0.18607
  
  S  C   3  -0.00082     0.01275     0.00471    -0.01802    -0.00064     0.00899
 PX  C   3  -0.01850     0.02242    -0.01421    -0.01525    -0.01870     0.00073
 PY  C   3  -0.01037     0.01506    -0.01152    -0.01741    -0.01384     0.01918
 PZ  C   3   0.15668    -0.27447     0.17025     0.27834     0.25218    -0.21826
  
  S  C   4   0.00146    -0.00823     0.01412     0.00965     0.00827    -0.02712
 PX  C   4   0.00324    -0.00362     0.02013    -0.01502     0.00364     0.00891
 PY  C   4  -0.00051    -0.00880     0.01522    -0.00071     0.00477    -0.00985
 PZ  C   4   0.12777     0.23798    -0.27260     0.22064    -0.29315    -0.21116
  
  S  C   5   0.01645     0.02561     0.01164    -0.03323    -0.02540     0.03099
 PX  C   5  -0.00999    -0.00923    -0.02093     0.02190     0.00443    -0.00797
 PY  C   5   0.01736     0.01465     0.02165    -0.02549    -0.00121     0.01603
 PZ  C   5   0.22804     0.22371     0.27196    -0.33855    -0.09936     0.19713
  
  S  C   6  -0.01108    -0.02496     0.00298     0.01837     0.03720    -0.01633
 PX  C   6   0.00348     0.00293     0.00275    -0.00110    -0.00062    -0.00159
 PY  C   6  -0.00695    -0.00221    -0.00852     0.00617    -0.00536    -0.00608
 PZ  C   6  -0.18075    -0.33526    -0.01243     0.20867     0.33158    -0.10360
  
  S  C   7  -0.01044    -0.02484    -0.01077     0.00615    -0.00452     0.01770
 PX  C   7   0.03374     0.01012     0.01560     0.00886     0.01116    -0.01131
 PY  C   7   0.02800     0.00212     0.01117     0.01714     0.01099    -0.01618
 PZ  C   7  -0.36381    -0.16893    -0.15561    -0.23585    -0.17332     0.32960
  
  S  C   8  -0.03166    -0.01321    -0.02356    -0.01905     0.02695     0.05433
 PX  C   8   0.03544     0.01513     0.01263     0.02057    -0.01461    -0.02824
 PY  C   8  -0.01138    -0.00588    -0.00187    -0.01165     0.01176     0.01654
 PZ  C   8  -0.35968    -0.14209    -0.13233    -0.20768     0.21635     0.30854
  
  S  C   9   0.00366    -0.00851     0.01026     0.00055    -0.01469    -0.01791
 PX  C   9  -0.01577    -0.00565    -0.02138    -0.01024     0.00601     0.02549
 PY  C   9   0.00403     0.00853     0.00842    -0.00010     0.00338    -0.01762
 PZ  C   9   0.01697    -0.12912     0.41423     0.02663     0.00670    -0.26372
  
  S  C  10   0.00220     0.03473    -0.00126    -0.00274     0.01306    -0.01569
 PX  C  10  -0.00157    -0.01743    -0.00119     0.00208    -0.00014     0.01012
 PY  C  10  -0.01325    -0.01305    -0.00676    -0.00241     0.00003     0.01431
 PZ  C  10  -0.01393     0.43847    -0.04882     0.01156    -0.02192    -0.27918
  
  S  C  11  -0.00823    -0.01386     0.01066    -0.00244    -0.02234    -0.00757
 PX  C  11   0.00148     0.01308     0.00171    -0.00110     0.00148    -0.00860
 PY  C  11   0.02838    -0.00889    -0.00891     0.01703     0.01010     0.02661
 PZ  C  11   0.36721    -0.10755    -0.17555     0.20758     0.20410     0.34237
  
  S  H  12   0.00084     0.00245    -0.01111     0.00067     0.01608     0.01391
  
  S  C  13   0.00744     0.00477    -0.00768     0.00974     0.00127     0.02082
 PX  C  13  -0.00216     0.00239     0.00158     0.00149     0.00207    -0.00045
 PY  C  13   0.00441    -0.00399    -0.00143     0.00360    -0.00530     0.00475
 PZ  C  13   0.37791    -0.13431    -0.18485     0.17306    -0.20802     0.32787
  
  S  H  14   0.00756     0.01132     0.00168     0.00224     0.00183    -0.00966
  
  S  H  15  -0.00053    -0.01505    -0.00058     0.01798     0.01780    -0.01134
  
  S  H  16   0.00158     0.00221     0.00069    -0.00501    -0.00151     0.00619
  
  S  H  17  -0.00687    -0.01562    -0.01150     0.02799     0.01594    -0.02273
  
  S  H  18   0.00248     0.01116    -0.00876    -0.00304    -0.02225     0.00575
  
  S  H  19   0.01934     0.00973     0.01009     0.01718    -0.02363    -0.03732
  
  S  H  20  -0.00861    -0.00283    -0.00054    -0.00839     0.00402    -0.00836
  
  S  C  21   0.00672    -0.01972    -0.00858    -0.02081    -0.00112    -0.01259
 PX  C  21  -0.00458     0.00848     0.00994     0.00988    -0.00638     0.00358
 PY  C  21  -0.01119     0.00691     0.01526     0.01628    -0.01359     0.01127
 PZ  C  21  -0.23711     0.20345     0.26428     0.32856    -0.16396     0.21373
  
  S  C  22   0.01188     0.01088    -0.02226    -0.00790     0.03181    -0.00565
 PX  C  22   0.02231     0.00601    -0.04179    -0.02334     0.04666    -0.01443
 PY  C  22   0.00339    -0.01053    -0.00063    -0.00695    -0.00456    -0.00315
 PZ  C  22   0.18471     0.06729    -0.33390    -0.16924     0.36887    -0.10023
  
  S  C  23  -0.00299     0.00369    -0.00010    -0.00114    -0.00100    -0.00539
 PX  C  23   0.00608    -0.01728     0.00745    -0.00289    -0.01937     0.00144
 PY  C  23  -0.00577     0.01352    -0.00360     0.00500     0.01718     0.00250
 PZ  C  23   0.21852    -0.34807    -0.00052    -0.18246    -0.34010    -0.10010
  
  S  C  24  -0.00739     0.01277     0.00074     0.01441     0.02018     0.01960
 PX  C  24  -0.00691     0.00601     0.01111     0.01067     0.00083     0.00335
 PY  C  24   0.01194    -0.01385    -0.00604    -0.01640    -0.01118    -0.01574
 PZ  C  24  -0.23070     0.21877     0.25487     0.34151     0.09985     0.21917
  
  S  H  25  -0.00661     0.00810     0.01156     0.01795    -0.00907     0.01358
  
  S  H  26  -0.00912    -0.00766     0.01855     0.00916    -0.02874     0.00719
  
  S  H  27  -0.00196    -0.00216     0.00528     0.00482    -0.00577     0.00660
  
  S  H  28   0.00080    -0.00916     0.00279    -0.00879    -0.01576    -0.01138
  
  S  C  29   0.00630     0.01663    -0.00795     0.00770     0.01757     0.00747
 PX  C  29  -0.00883    -0.01328     0.01035    -0.00674    -0.01213    -0.00828
 PY  C  29  -0.00904    -0.00969    -0.00016    -0.01198    -0.00512    -0.00643
 PZ  C  29  -0.12730    -0.29791     0.18387    -0.25208    -0.24264    -0.23896
  
  S  C  30   0.00477    -0.01293     0.01397    -0.00488    -0.02040    -0.01878
 PX  C  30   0.00373    -0.00367    -0.00666    -0.00314    -0.00494     0.00308
 PY  C  30   0.00924    -0.00522     0.00337     0.00783    -0.00549     0.00787
 PZ  C  30  -0.15957     0.22263    -0.23520    -0.23676     0.26238    -0.23368




    ROOT NO.   49          50          51          52          53          54

             2.34516     2.45456     2.82037     3.12868     3.25909     3.38808
  
  
  S  C   1  -0.02594     0.15304    -0.19527     0.02564     0.24473     0.10757
 PX  C   1  -0.02074     0.02399    -0.02441    -0.02218     0.01703     0.07051
 PY  C   1  -0.00538     0.01092    -0.01772     0.00849     0.00463    -0.06065
 PZ  C   1   0.27112     0.19840     0.01664     0.22629    -0.09143     0.03300
  
  S  C   2   0.08567    -0.18480     0.24173     0.03055    -0.24448    -0.18343
 PX  C   2   0.02255    -0.01913     0.00762     0.01987     0.03337    -0.01580
 PY  C   2   0.04335    -0.02271     0.02974     0.03673    -0.00317    -0.00625
 PZ  C   2  -0.18084    -0.18153     0.02025    -0.23996     0.06996    -0.04125
  
  S  C   3  -0.13348     0.23495    -0.25656    -0.06479     0.14169     0.11377
 PX  C   3  -0.01524    -0.01459     0.06756    -0.03859    -0.06987     0.10153
 PY  C   3  -0.01222     0.01449    -0.00048    -0.00964    -0.06563    -0.14112
 PZ  C   3   0.02180     0.10039    -0.04748     0.30290    -0.08357     0.01966
  
  S  C   4   0.11739    -0.23414     0.24694     0.01995    -0.02868     0.26578
 PX  C   4   0.03296    -0.00829    -0.01366     0.04108     0.03532    -0.07964
 PY  C   4   0.00015     0.02662    -0.06133    -0.00788     0.10235     0.10646
 PZ  C   4  -0.01951    -0.06546     0.03233    -0.30151     0.08372    -0.02999
  
  S  C   5  -0.03884     0.18747    -0.20266     0.04545     0.07905    -0.27272
 PX  C   5  -0.04993     0.04372    -0.04604    -0.03723    -0.02088    -0.07507
 PY  C   5   0.00746     0.00031     0.01544     0.00834    -0.04019    -0.01404
 PZ  C   5   0.19627     0.11869     0.03110     0.23318    -0.09576     0.05630
  
  S  C   6   0.00342    -0.14962     0.17294    -0.06327    -0.15488     0.11971
 PX  C   6   0.01555    -0.03285     0.03963     0.00257    -0.02722     0.01254
 PY  C   6   0.00900    -0.00623    -0.00224    -0.00007     0.05487     0.10999
 PZ  C   6  -0.27773    -0.17055    -0.03956    -0.22172     0.10290    -0.05028
  
  S  C   7   0.15180    -0.19972     0.09973     0.07924     0.06727    -0.25419
 PX  C   7  -0.00615     0.02227    -0.09718     0.00722     0.10609    -0.03768
 PY  C   7   0.03083    -0.03998    -0.02690     0.02337     0.06352    -0.05271
 PZ  C   7   0.13670     0.04207     0.03836    -0.15343     0.04762     0.02066
  
  S  C   8  -0.14857     0.19949    -0.11728    -0.01148    -0.20250    -0.22508
 PX  C   8  -0.01053     0.02027     0.07297    -0.02616    -0.11368     0.03896
 PY  C   8   0.00528    -0.03772     0.05268     0.01160    -0.04324     0.04177
 PZ  C   8  -0.13058    -0.09618    -0.01334     0.15288    -0.02305     0.04609
  
  S  C   9   0.16968    -0.21271    -0.02844     0.04810     0.36481     0.08702
 PX  C   9  -0.00289    -0.01213    -0.07992     0.01429     0.01537    -0.09262
 PY  C   9  -0.02180     0.02350    -0.03468    -0.01835    -0.04506     0.15553
 PZ  C   9   0.30411     0.18123     0.04222    -0.00658     0.02181    -0.00226
  
  S  C  10  -0.19889     0.22155     0.03594    -0.07725    -0.28474     0.29346
 PX  C  10   0.01955    -0.00313     0.07677     0.01407     0.04478     0.06230
 PY  C  10  -0.00653     0.01494     0.04380     0.00494    -0.10341    -0.10819
 PZ  C  10  -0.28436    -0.16577    -0.04755     0.01764    -0.00832    -0.06094
  
  S  C  11   0.14737    -0.19754    -0.16068     0.01701     0.09491    -0.27423
 PX  C  11  -0.04301     0.03037    -0.06167    -0.03263    -0.11990     0.07481
 PY  C  11   0.02245    -0.02113    -0.06366    -0.00088    -0.05600     0.02468
 PZ  C  11   0.13216     0.04468     0.00430     0.15077     0.02832     0.03429
  
  S  H  12  -0.07848     0.11272     0.09727    -0.00323    -0.08339     0.14826
  
  S  C  13  -0.12945     0.17687     0.15299    -0.01584    -0.16721    -0.21298
 PX  C  13   0.00305     0.00514     0.08069     0.02530     0.10643    -0.02837
 PY  C  13   0.02491    -0.03271     0.01721     0.00560     0.07565    -0.00343
 PZ  C  13  -0.12957    -0.08132    -0.02172    -0.15432    -0.01317    -0.00046
  
  S  H  14  -0.07994     0.10662    -0.05770    -0.04334    -0.06143     0.11286
  
  S  H  15   0.01884    -0.09847     0.12510    -0.01291    -0.16229    -0.08290
  
  S  H  16  -0.04609     0.11335    -0.15957    -0.00977     0.16495     0.09412
  
  S  H  17   0.01494    -0.11488     0.12808    -0.03768    -0.06451     0.15213
  
  S  H  18  -0.00455     0.08957    -0.10351     0.03719     0.08870    -0.08217
  
  S  H  19   0.09384    -0.11596     0.08043     0.00434     0.13106     0.09604
  
  S  H  20   0.07813    -0.10380    -0.10280     0.01693     0.10555     0.10254
  
  S  C  21   0.10388    -0.13639    -0.27074    -0.03205    -0.23838    -0.09397
 PX  C  21  -0.04163     0.03929     0.04777     0.01321    -0.01181     0.03080
 PY  C  21  -0.01586    -0.01018    -0.01250     0.02038    -0.02445     0.01579
 PZ  C  21  -0.18905    -0.12868    -0.03802     0.25023     0.00534     0.01410
  
  S  C  22  -0.03781     0.10995     0.21128    -0.01565     0.23311     0.02357
 PX  C  22   0.05165    -0.00303    -0.03743    -0.03631    -0.02785     0.01512
 PY  C  22   0.01432    -0.01479    -0.01823    -0.00554    -0.00762    -0.07215
 PZ  C  22   0.27447     0.13346    -0.00347    -0.23300    -0.03824    -0.02003
  
  S  C  23   0.04338    -0.08470    -0.17609    -0.00101    -0.16475     0.13982
 PX  C  23  -0.02344     0.01002     0.01512     0.01465    -0.02631    -0.06094
 PY  C  23   0.00129     0.02655     0.04390    -0.01094     0.05183     0.02056
 PZ  C  23  -0.27705    -0.13617    -0.00719     0.23963     0.02110     0.01669
  
  S  C  24  -0.05207     0.12316     0.21044     0.00950     0.10557    -0.21370
 PX  C  24   0.02021    -0.01096    -0.00600    -0.01889     0.04092     0.01330
 PY  C  24   0.01384    -0.03805    -0.04505    -0.00106     0.00193     0.03198
 PZ  C  24   0.21233     0.09834    -0.00581    -0.27038    -0.02707     0.00155
  
  S  H  25  -0.06672     0.07479     0.17368     0.03271     0.16638     0.03380
  
  S  H  26   0.01522    -0.07473    -0.13144     0.02094    -0.14453    -0.02869
  
  S  H  27  -0.03148     0.04776     0.10323     0.00525     0.09449    -0.09385
  
  S  H  28   0.02557    -0.07133    -0.13158    -0.00511    -0.08213     0.11334
  
  S  C  29  -0.13362     0.19412     0.30396     0.03503     0.13930     0.09147
 PX  C  29   0.01799    -0.01657     0.02252    -0.00648     0.08988     0.02216
 PY  C  29   0.00340     0.00729     0.05735     0.01125     0.04784    -0.14818
 PZ  C  29   0.04003     0.05979     0.02502    -0.31923    -0.02521    -0.03257
  
  S  C  30   0.11383    -0.18013    -0.27879    -0.04226    -0.06183     0.20792
 PX  C  30  -0.01317     0.00367    -0.05067    -0.01246    -0.10430    -0.05489
 PY  C  30  -0.02562     0.02913     0.03634     0.00271     0.00907     0.08799
 PZ  C  30  -0.05330    -0.04733    -0.01531     0.33045     0.02560     0.03104




    ROOT NO.   55          56          57          58          59          60

             3.56804     3.65705     3.76550     3.84321     4.10733     4.13523
  
  
  S  C   1   0.00174     0.33959    -0.22677    -0.04760     0.03938     0.04762
 PX  C   1   0.01183    -0.06215     0.09277    -0.12499     0.02809     0.08301
 PY  C   1  -0.00257     0.01716    -0.03695     0.07765    -0.02764    -0.01408
 PZ  C   1  -0.11594    -0.01420     0.05785    -0.01996     0.00141    -0.00581
  
  S  C   2  -0.03074    -0.09404    -0.05272     0.27126    -0.07167    -0.20686
 PX  C   2  -0.00683     0.15146    -0.14285     0.05506     0.00040    -0.00906
 PY  C   2  -0.01871     0.08290    -0.05916    -0.02628     0.02027     0.08531
 PZ  C   2   0.14575    -0.01331    -0.05756     0.02346    -0.00249     0.01274
  
  S  C   3   0.03914    -0.20549     0.25688    -0.14792     0.03252    -0.08355
 PX  C   3   0.00665    -0.01804    -0.02448     0.01457     0.02084    -0.17285
 PY  C   3   0.00995    -0.11741     0.03733     0.13115    -0.04944    -0.05208
 PZ  C   3  -0.25263     0.04856     0.08108    -0.00914    -0.00296    -0.02358
  
  S  C   4  -0.03095     0.25273    -0.17802    -0.10697     0.05686    -0.03148
 PX  C   4  -0.01850     0.05693    -0.05823     0.15524    -0.04165    -0.12258
 PY  C   4   0.00833    -0.03092     0.10286    -0.05875     0.02715    -0.13593
 PZ  C   4   0.25647    -0.04870    -0.08847     0.02244    -0.00396     0.01002
  
  S  C   5  -0.00346    -0.00650    -0.05536     0.32470    -0.09380    -0.21794
 PX  C   5   0.02762    -0.13846     0.10886    -0.02167     0.00612     0.03982
 PY  C   5  -0.00854    -0.07953     0.06547     0.01031    -0.00920    -0.04400
 PZ  C   5  -0.14476     0.00586     0.06635    -0.06050     0.01463     0.03166
  
  S  C   6   0.01549    -0.26643     0.25198    -0.19966     0.04651     0.04048
 PX  C   6  -0.00513    -0.00828     0.00520    -0.01698     0.00008     0.03704
 PY  C   6  -0.00111     0.11009    -0.05320    -0.11135     0.04179     0.08364
 PZ  C   6   0.11515     0.02729    -0.07487     0.04811    -0.00945    -0.00981
  
  S  C   7  -0.00149     0.12067    -0.05263     0.05879    -0.07950     0.37921
 PX  C   7   0.00446    -0.05728     0.12635    -0.05977     0.01140     0.02418
 PY  C   7  -0.00690    -0.00337     0.05976    -0.02588     0.02760    -0.04464
 PZ  C   7   0.22910    -0.07267    -0.05654    -0.00198     0.01586    -0.02092
  
  S  C   8  -0.00973    -0.14730    -0.04051    -0.00213    -0.04093     0.35983
 PX  C   8   0.02606     0.06656    -0.12649    -0.05781     0.05308    -0.01783
 PY  C   8  -0.02387     0.05130    -0.05120    -0.03787     0.00987     0.08760
 PZ  C   8  -0.23955     0.09354     0.06837    -0.00533     0.00908    -0.07633
  
  S  C   9  -0.01562    -0.02702     0.24476     0.06284    -0.13049    -0.09248
 PX  C   9  -0.03048    -0.07687     0.02405     0.03078    -0.05810     0.16093
 PY  C   9  -0.01872    -0.05751    -0.06451     0.05328    -0.13996    -0.01379
 PZ  C   9   0.31933    -0.10652    -0.09417    -0.00379     0.01244     0.02294
  
  S  C  10  -0.00907    -0.00514    -0.19525     0.02214    -0.06528    -0.10209
 PX  C  10   0.02378     0.02755     0.02871     0.08907    -0.16305     0.08068
 PY  C  10   0.00953     0.04015    -0.09748    -0.00276     0.03389     0.16088
 PZ  C  10  -0.30490     0.10276     0.10764     0.00483    -0.02191     0.02174
  
  S  C  11  -0.06543    -0.05976    -0.00888    -0.16095     0.34104    -0.08785
 PX  C  11  -0.02807    -0.02295    -0.11248    -0.05862     0.02379    -0.06102
 PY  C  11   0.00326    -0.03358    -0.08147    -0.03244    -0.06483    -0.00821
 PZ  C  11   0.22459    -0.08558    -0.06717    -0.01352     0.03521    -0.01882
  
  S  H  12   0.06268     0.05409    -0.00644     0.09223    -0.30739     0.09333
  
  S  C  13   0.08751     0.18532     0.01302    -0.11797     0.34927    -0.08739
 PX  C  13   0.03873     0.05688     0.12894    -0.01871    -0.07377    -0.02185
 PY  C  13   0.00445     0.02777     0.07533    -0.01939     0.04312    -0.04125
 PZ  C  13  -0.23944     0.07495     0.06860     0.01281    -0.03248    -0.00147
  
  S  H  14  -0.00220    -0.08420     0.02855    -0.02760     0.08755    -0.31356
  
  S  H  15  -0.00242    -0.23123     0.15881     0.02062    -0.02921     0.01846
  
  S  H  16   0.01811     0.06424     0.04521    -0.20812     0.05228     0.22729
  
  S  H  17   0.00987    -0.00426     0.03389    -0.23433     0.06734     0.21975
  
  S  H  18  -0.00861     0.16009    -0.15381     0.11033    -0.02920     0.02506
  
  S  H  19   0.02268     0.11195     0.01975     0.02490     0.05769    -0.32845
  
  S  H  20  -0.05786    -0.13853    -0.02001     0.06195    -0.31702     0.09638
  
  S  C  21   0.09295     0.13420    -0.00284    -0.24481    -0.25353    -0.11708
 PX  C  21   0.08246     0.10718     0.14344     0.04759    -0.05878    -0.00294
 PY  C  21   0.05149     0.04836     0.07017     0.05608     0.04961     0.02554
 PZ  C  21   0.13708    -0.05586    -0.05951    -0.03825    -0.01787    -0.01809
  
  S  C  22  -0.21869    -0.26762    -0.24483     0.01278     0.06930     0.02738
 PX  C  22  -0.00680     0.01122     0.00866     0.01925    -0.01415     0.01112
 PY  C  22  -0.02608    -0.02226    -0.08228    -0.15565    -0.11581    -0.06956
 PZ  C  22  -0.08345     0.06956     0.06189     0.01312     0.00401     0.00301
  
  S  C  23   0.16003     0.17672     0.24659     0.25031     0.10231     0.09775
 PX  C  23   0.05422     0.07510     0.05366    -0.08644    -0.11195    -0.03871
 PY  C  23  -0.05234    -0.06241    -0.04764     0.03437     0.03015     0.02394
 PZ  C  23   0.10429    -0.04738    -0.03859    -0.00540     0.00859    -0.00113
  
  S  C  24  -0.00380     0.04658    -0.00996    -0.31077    -0.30227    -0.12443
 PX  C  24  -0.08865    -0.10643    -0.12600    -0.03454     0.00465    -0.01623
 PY  C  24  -0.03579    -0.05469    -0.06961    -0.02900    -0.05365    -0.02501
 PZ  C  24  -0.14561     0.05682     0.05366     0.03641     0.00563     0.01414
  
  S  H  25  -0.06190    -0.09601     0.00070     0.16742     0.24765     0.08715
  
  S  H  26   0.14365     0.17075     0.15743    -0.01152    -0.00331    -0.02025
  
  S  H  27  -0.09265    -0.10342    -0.14856    -0.15232    -0.02247    -0.06236
  
  S  H  28   0.00598    -0.02414     0.00122     0.20247     0.26717     0.08502
  
  S  C  29   0.09284     0.11922     0.25313     0.20651    -0.05002     0.08223
 PX  C  29  -0.08144    -0.09833    -0.04439     0.09155     0.14727     0.04992
 PY  C  29   0.02391     0.06656     0.08090    -0.08572     0.09348    -0.04552
 PZ  C  29  -0.24477     0.10086     0.08777     0.02583    -0.02960     0.01781
  
  S  C  30  -0.14310    -0.22510    -0.23941     0.10677     0.01446     0.04966
 PX  C  30   0.01564     0.03107    -0.03607    -0.02051     0.18764    -0.02114
 PY  C  30   0.02957     0.02748     0.08845     0.17117     0.07673     0.07582
 PZ  C  30   0.24840    -0.10573    -0.09209    -0.01554     0.02437    -0.00657




    ROOT NO.   61          62          63          64          65          66

             5.08795     5.32523     5.50117     5.63671     6.04045     6.35015
  
  
  S  C   1  -0.18414    -0.23901     0.00434     0.03044    -0.03372     0.01575
 PX  C   1   0.15285     0.08009     0.06409    -0.11195     0.09053    -0.03459
 PY  C   1   0.09181     0.30660    -0.07820     0.05925    -0.01114    -0.00333
 PZ  C   1   0.00582     0.01096    -0.00261     0.00248    -0.00229     0.00158
  
  S  C   2  -0.18604    -0.07161    -0.07736     0.12719    -0.09030     0.03283
 PX  C   2  -0.15182    -0.16742    -0.00960     0.04088    -0.03885     0.02116
 PY  C   2   0.10319     0.11382     0.05336    -0.12883     0.17906    -0.11124
 PZ  C   2   0.00941     0.02177    -0.00010    -0.00661     0.01422    -0.01016
  
  S  C   3   0.01993    -0.04324    -0.03376     0.08987    -0.16266     0.10997
 PX  C   3  -0.13773     0.06823    -0.06285     0.04101     0.08288    -0.09897
 PY  C   3  -0.06711    -0.06936    -0.04123     0.09738    -0.13341     0.09637
 PZ  C   3  -0.01145    -0.01416    -0.00379     0.00909    -0.00791     0.00250
  
  S  C   4  -0.02856     0.07331     0.01731    -0.07848     0.15750    -0.12444
 PX  C   4   0.11958    -0.00211     0.07987    -0.11471     0.08323    -0.04064
 PY  C   4   0.10496     0.00178     0.00259     0.03128    -0.15248     0.13784
 PZ  C   4  -0.00205    -0.00165     0.00657    -0.01183     0.01662    -0.01370
  
  S  C   5   0.14727    -0.03536     0.11327    -0.15816     0.11537    -0.05274
 PX  C   5  -0.00479    -0.07167    -0.01765     0.06388    -0.13225     0.11146
 PY  C   5   0.05059    -0.16940     0.12785    -0.16837     0.14832    -0.09051
 PZ  C   5  -0.01123     0.01721    -0.02095     0.03015    -0.03105     0.02176
  
  S  C   6   0.01086    -0.30891     0.13782    -0.14468     0.06801    -0.01802
 PX  C   6   0.01002     0.24012    -0.11335     0.12859    -0.08028     0.02906
 PY  C   6  -0.13034    -0.07635    -0.05258     0.09187    -0.07713     0.03472
 PZ  C   6  -0.00037     0.02488    -0.00931     0.00847    -0.00073    -0.00271
  
  S  C   7   0.20402    -0.10640     0.08481    -0.05108    -0.10310     0.12493
 PX  C   7   0.03019    -0.09087    -0.00453     0.04781    -0.12590     0.09695
 PY  C   7  -0.06092     0.02612    -0.06233     0.05239     0.08510    -0.19478
 PZ  C   7  -0.01315     0.00875    -0.00890     0.00599     0.00535    -0.00967
  
  S  C   8  -0.22132    -0.01307    -0.05490     0.03990     0.09382    -0.10566
 PX  C   8   0.03496     0.01770     0.05650    -0.10588    -0.02288     0.17571
 PY  C   8  -0.11548    -0.00735    -0.02502     0.00263     0.16753    -0.25466
 PZ  C   8   0.04653     0.00520     0.01303    -0.01352    -0.02734     0.04586
  
  S  C   9  -0.00628    -0.01708    -0.06680     0.14412     0.01452    -0.21057
 PX  C   9  -0.14988     0.00772    -0.04262     0.02432     0.07298    -0.08276
 PY  C   9  -0.07494     0.07233     0.05426    -0.08741     0.04075     0.15990
 PZ  C   9  -0.01741     0.00030    -0.00484     0.00272     0.00893    -0.01298
  
  S  C  10   0.00637     0.07046     0.07356    -0.09892     0.00646     0.14415
 PX  C  10   0.14668    -0.06726     0.00755     0.08283    -0.07476    -0.09618
[...]
  S   H   18   -0.1094    0.0396   -0.0525    0.0246   -0.0094    0.3090    0.0020   -0.0803
  S   H   19   -0.1705    0.2825    0.2497   -0.0323   -0.1016    0.0431   -0.0087   -0.1781
  S   H   20    0.1421    0.2558    0.1487    0.2526   -0.0584   -0.0115    0.0458    0.1724
  S   C   21    0.1165    0.0398   -0.0024    0.0088    0.0140    0.0008    0.0791   -0.0471
  Px  C   21    0.1681    0.1084   -0.0925   -0.2823   -0.1885    0.0004   -0.0779    0.0313
  Py  C   21   -0.1439   -0.0831    0.0309    0.0938    0.0507    0.0021    0.2813   -0.1569
  Pz  C   21    0.0130    0.0056   -0.0010   -0.0006    0.0011    0.0000    0.0008    0.0008
  S   C   22    0.0321    0.0119    0.0206    0.0515    0.0296   -0.0007   -0.1158    0.0461
  Px  C   22    0.0155    0.0115    0.0313    0.0826    0.0335    0.0042    0.4842   -0.1457
  Py  C   22    0.1227    0.0405   -0.0151   -0.0414   -0.0328    0.0009   -0.0205   -0.0503
  Pz  C   22   -0.0075   -0.0047   -0.0038   -0.0093   -0.0033   -0.0004   -0.0463    0.0127
  S   C   23   -0.1187   -0.0322    0.0227    0.0548    0.0290    0.0003    0.0672    0.0198
  Px  C   23   -0.1310   -0.0439   -0.0070   -0.0254   -0.0326   -0.0028   -0.1994   -0.1053
  Py  C   23   -0.0483   -0.0148    0.0253    0.0647    0.0293   -0.0034   -0.4717    0.0005
  Pz  C   23    0.0002    0.0002    0.0019    0.0054    0.0041    0.0001    0.0010    0.0056
  S   C   24   -0.1476   -0.0559   -0.0131   -0.0222   -0.0038   -0.0005   -0.0660   -0.0595
  Px  C   24    0.1034    0.0363   -0.0207   -0.0616   -0.0515   -0.0018   -0.1719   -0.1051
  Py  C   24   -0.1864   -0.1161   -0.0908   -0.2887   -0.1765   -0.0012    0.2234    0.1929
  Pz  C   24   -0.0005   -0.0011   -0.0015   -0.0080   -0.0066    0.0000    0.0202    0.0166
  S   H   25   -0.2140   -0.1111    0.0575    0.1683    0.1007    0.0009    0.1577   -0.0834
  S   H   26   -0.0395   -0.0220   -0.0272   -0.0656   -0.0228   -0.0026   -0.2894    0.0888
  S   H   27    0.1613    0.0499   -0.0199   -0.0411   -0.0067    0.0031    0.3394    0.0299
  S   H   28    0.2457    0.1191    0.0627    0.1894    0.1047    0.0003   -0.1629   -0.1291
  S   C   29    0.1872    0.1285   -0.0661   -0.2177   -0.1784   -0.0013    0.0239   -0.0166
  Px  C   29   -0.0842   -0.0306   -0.0154   -0.0961   -0.1079    0.0018   -0.1109    0.0569
  Py  C   29    0.1305    0.1219    0.0244    0.1285    0.1435   -0.0027   -0.0520    0.0148
  Pz  C   29   -0.0029   -0.0034    0.0047    0.0050   -0.0038   -0.0001    0.0073   -0.0032
  S   C   30   -0.1455   -0.1040   -0.0715   -0.2532   -0.1961    0.0004    0.0051    0.0021
  Px  C   30   -0.0749   -0.0900    0.0246    0.0659    0.0665    0.0007    0.0824    0.1844
  Py  C   30    0.1772    0.1175   -0.0134   -0.0873   -0.1204   -0.0040    0.0788    0.0754
  Pz  C   30   -0.0027   -0.0046   -0.0078   -0.0203   -0.0091   -0.0001    0.0033    0.0014


   Root No.      73        74        75        76        77        78        79        80

                73 A      74 A      75 A      76 A      77 A      78 A      79 A      80 A   

                 9.329     9.477    10.096    10.593    11.032    11.725    11.817    12.204
  
  S   C    1   -0.0158   -0.0557   -0.0567   -0.0782   -0.0466    0.0322   -0.0010    0.0170
  Px  C    1    0.0582   -0.1843    0.0512   -0.2044    0.1671   -0.1220    0.1131   -0.1733
  Py  C    1   -0.1059   -0.0577   -0.1991   -0.0761   -0.2147    0.1447   -0.0745    0.1489
  Pz  C    1   -0.0060    0.0043   -0.0071    0.0043   -0.0098    0.0066   -0.0069    0.0108
  S   C    2   -0.0606    0.0762   -0.0665    0.0329   -0.0975    0.0628    0.0028    0.0178
  Px  C    2    0.0398   -0.1849   -0.0128   -0.2380    0.0694   -0.0495    0.1214   -0.1572
  Py  C    2   -0.1902    0.1367   -0.1835   -0.0610   -0.1841    0.1117    0.0962   -0.0639
  Pz  C    2   -0.0191    0.0194   -0.0195    0.0023   -0.0243    0.0153    0.0056   -0.0014
  S   C    3    0.0042    0.0384   -0.0010    0.0613   -0.0355    0.0200   -0.0048    0.0086
  Px  C    3   -0.2458    0.1170   -0.2315   -0.0788    0.0060   -0.1483   -0.2056    0.1477
  Py  C    3   -0.0856    0.0228   -0.1294   -0.1061   -0.2564    0.2326    0.2989   -0.2312
  Pz  C    3   -0.0232    0.0098   -0.0232   -0.0112   -0.0103   -0.0020   -0.0023    0.0008
  S   C    4   -0.0261    0.0409    0.0055    0.0628    0.0396   -0.0373   -0.0014   -0.0095
  Px  C    4    0.0820    0.0823    0.2471   -0.0894    0.2512   -0.0795   -0.1464    0.2124
  Py  C    4    0.0721    0.0925    0.1319    0.0231   -0.1199    0.2480    0.3226   -0.1945
  Pz  C    4    0.0060    0.0083    0.0140   -0.0002    0.0024    0.0088    0.0102   -0.0016
  S   C    5   -0.0157    0.0723    0.0662    0.0449    0.0934   -0.0622    0.0017   -0.0206
  Px  C    5    0.0749    0.0276    0.1705   -0.1448    0.1553   -0.0249   -0.1459    0.2313
  Py  C    5    0.1024   -0.2427   -0.0876   -0.1964   -0.1436    0.1352   -0.0629    0.1605
  Pz  C    5   -0.0038    0.0149    0.0117    0.0055    0.0154   -0.0097   -0.0022    0.0001
  S   C    6    0.0608   -0.0635    0.0470   -0.0710    0.0459   -0.0116   -0.0029    0.0156
  Px  C    6    0.2137   -0.1745    0.1522   -0.1569    0.1256   -0.0368    0.0018    0.0162
  Py  C    6   -0.0034   -0.1118   -0.1503   -0.1568   -0.2403    0.2102   -0.1400    0.2813
  Pz  C    6   -0.0001   -0.0022   -0.0044   -0.0020   -0.0068    0.0050   -0.0018    0.0040
  S   C    7    0.1121   -0.0172    0.0634    0.0810   -0.0513    0.0679    0.0087   -0.0151
  Px  C    7   -0.1524    0.1188   -0.1567    0.0085   -0.0343   -0.0819   -0.2143    0.1541
  Py  C    7    0.3331    0.0061    0.0868    0.2466   -0.1492    0.1335   -0.1047    0.0241
  Pz  C    7    0.0092    0.0096   -0.0081    0.0132   -0.0113    0.0004   -0.0218    0.0121
  S   C    8   -0.0732   -0.0258   -0.0832    0.0744    0.0336   -0.0924   -0.0079   -0.0097
  Px  C    8   -0.1349    0.0569   -0.0068    0.2045    0.1203   -0.0942    0.1873   -0.0698
  Py  C    8    0.1352    0.1092    0.1944   -0.0820   -0.0106    0.1549    0.1146   -0.0424
  Pz  C    8   -0.0104    0.0054    0.0019    0.0140    0.0096   -0.0056    0.0141   -0.0040
  S   C    9    0.0031   -0.0313   -0.0344   -0.0016   -0.0062   -0.0296   -0.0115   -0.0156
  Px  C    9   -0.2056    0.0303   -0.0734    0.2490    0.1658   -0.1764    0.1671   -0.0729
  Py  C    9   -0.1057   -0.0274    0.1075    0.1664    0.1028    0.3100   -0.2679   -0.0231
  Pz  C    9   -0.0046    0.0010   -0.0043    0.0064    0.0041   -0.0122    0.0107   -0.0025
  S   C   10    0.0017   -0.0334    0.0429   -0.0044   -0.0041    0.0348    0.0061   -0.0087
  Px  C   10    0.2887    0.0150   -0.0786    0.2233   -0.2257   -0.2069    0.1132    0.0472
  Py  C   10    0.1541    0.0511    0.0963    0.1511   -0.0987    0.2868   -0.2915    0.0686
  Pz  C   10    0.0102    0.0046   -0.0034    0.0105   -0.0082   -0.0018   -0.0018    0.0044
  S   C   11   -0.1080   -0.0485    0.0871   -0.0642    0.0385    0.0809    0.0190    0.0185
  Px  C   11    0.1964   -0.0202   -0.0109    0.1847   -0.1753   -0.1350    0.1373    0.0628
  Py  C   11   -0.2689   -0.1792    0.2192   -0.0882    0.0042    0.1121    0.1102    0.1001
  Pz  C   11    0.0170    0.0119   -0.0163    0.0047   -0.0003   -0.0096   -0.0088   -0.0066
  S   H   12   -0.1873   -0.0797    0.1075   -0.0830    0.0518    0.0956    0.0156    0.0372
  S   C   13    0.0671   -0.0423   -0.0710   -0.0886   -0.0367   -0.0775   -0.0132   -0.0404
  Px  C   13    0.0456   -0.1667   -0.1550    0.0157    0.0540   -0.0468   -0.1794   -0.1989
  Py  C   13   -0.1878    0.0655    0.0997    0.2521    0.1127    0.1505   -0.0813    0.0044
  Pz  C   13    0.0005    0.0024    0.0017   -0.0020   -0.0009   -0.0001    0.0026    0.0019
  S   H   14    0.2152   -0.0251    0.0848    0.1162   -0.0707    0.0991    0.0027   -0.0274
  S   H   15   -0.0344   -0.0854   -0.0795   -0.0986   -0.0519    0.0330    0.0000    0.0182
  S   H   16   -0.1051    0.1120   -0.0871    0.0284   -0.1090    0.0694    0.0176    0.0078
  S   H   17   -0.0272    0.1243    0.0910    0.0505    0.1158   -0.0761   -0.0151   -0.0095
  S   H   18    0.1334   -0.1036    0.0969   -0.0929    0.0801   -0.0258   -0.0005    0.0084
  S   H   19   -0.1000   -0.0393   -0.0949    0.0786    0.0391   -0.1041   -0.0105    0.0079
  S   H   20    0.1064   -0.0741   -0.0890   -0.1113   -0.0428   -0.0903   -0.0079   -0.0550
  S   C   21    0.0412    0.1024   -0.0736   -0.0271    0.0978    0.0716    0.0193    0.0056
  Px  C   21   -0.1213   -0.0699    0.1748   -0.1507   -0.0925    0.0221   -0.1356   -0.2520
  Py  C   21    0.0802    0.3183   -0.0959   -0.1599    0.1764    0.1733   -0.0172   -0.1170
  Pz  C   21    0.0010   -0.0012   -0.0028    0.0037    0.0010   -0.0017    0.0033    0.0071
  S   C   22    0.0190   -0.0758   -0.0544    0.0730    0.0349    0.0142    0.0093    0.0238
  Px  C   22   -0.0769    0.2133    0.1554   -0.1688   -0.0873   -0.0374   -0.0156   -0.0380
  Py  C   22    0.0674    0.1488   -0.1573   -0.1090    0.2729    0.2806   -0.0593   -0.2096
  Pz  C   22    0.0092   -0.0170   -0.0177    0.0131    0.0128    0.0082    0.0007   -0.0002
  S   C   23   -0.0347   -0.0654    0.0400    0.0581   -0.0374   -0.0186   -0.0052    0.0053
  Px  C   23    0.0693    0.2640    0.0729   -0.2347   -0.1683   -0.2056    0.0519    0.1215
  Py  C   23    0.1532    0.1087   -0.2214   -0.0490    0.2276    0.1810   -0.0165   -0.0943
  Pz  C   23   -0.0007   -0.0119   -0.0078    0.0116    0.0126    0.0139   -0.0041   -0.0095
  S   C   24    0.0025    0.1012    0.0702   -0.0449   -0.0860   -0.0627   -0.0240   -0.0125
  Px  C   24    0.0775    0.2657    0.0144   -0.2428   -0.0791   -0.1375    0.0733    0.1300
  Py  C   24    0.0416   -0.2320   -0.1972   -0.0271    0.1660    0.0661    0.1204    0.1210
  Pz  C   24   -0.0007   -0.0268   -0.0149    0.0109    0.0169    0.0126    0.0043    0.0017
  S   H   25    0.0720    0.1696   -0.0925   -0.0323    0.1092    0.0781    0.0311    0.0154
  S   H   26    0.0446   -0.1333   -0.0865    0.1040    0.0428    0.0149    0.0121    0.0278
  S   H   27   -0.1104   -0.1431    0.1002    0.0998   -0.0713   -0.0346   -0.0097    0.0103
  S   H   28   -0.0026    0.1904    0.1061   -0.0514   -0.1082   -0.0744   -0.0413   -0.0266
  S   C   29   -0.0003    0.0470   -0.0089   -0.0501    0.0413    0.0337    0.0067   -0.0008
  Px  C   29   -0.1708   -0.1425    0.2566   -0.1190   -0.1880   -0.0382   -0.1598   -0.2586
  Py  C   29   -0.1282   -0.1175    0.1540    0.0283    0.0485    0.1507    0.2958    0.3014
  Pz  C   29    0.0103    0.0094   -0.0156    0.0052    0.0092   -0.0002    0.0002    0.0044
  S   C   30    0.0202    0.0358   -0.0055   -0.0635   -0.0191   -0.0214    0.0020    0.0058
  Px  C   30    0.1055   -0.1869   -0.2383   -0.0643    0.0322   -0.1209   -0.1805   -0.2175
  Py  C   30    0.0394   -0.0457   -0.1294   -0.0666    0.1911    0.1164    0.2921    0.3302
  Pz  C   30    0.0020    0.0007   -0.0036   -0.0050    0.0039    0.0012    0.0089    0.0098


   Root No.      81        82        83        84

                81 A      82 A      83 A      84 A   

                12.530    12.722    13.144    14.453
  
  S   C    1    0.0665   -0.0009    0.0010    0.0393
  Px  C    1    0.2428    0.2127    0.1792    0.0958
  Py  C    1    0.0030   -0.1365   -0.1101    0.0279
  Pz  C    1   -0.0078   -0.0113   -0.0089   -0.0022
  S   C    2    0.0056   -0.0199   -0.0211    0.0255
  Px  C    2    0.2929    0.2048    0.1668    0.1390
  Py  C    2    0.1825    0.0707    0.0370    0.1223
  Pz  C    2    0.0095    0.0016   -0.0006    0.0089
  S   C    3   -0.0145   -0.0042    0.0060    0.0236
  Px  C    3    0.2430    0.0765    0.2387    0.2123
  Py  C    3    0.2026    0.1269   -0.0204    0.1106
  Pz  C    3    0.0286    0.0124    0.0191    0.0218
  S   C    4   -0.0064   -0.0019   -0.0083    0.0303
  Px  C    4    0.1923   -0.1768   -0.1441    0.2120
  Py  C    4    0.1500   -0.0182   -0.2266    0.1483
  Pz  C    4    0.0128   -0.0080   -0.0168    0.0152
  S   C    5    0.0158    0.0212    0.0191    0.0235
  Px  C    5    0.1857   -0.1892   -0.1431    0.1767
  Py  C    5    0.0684   -0.1561   -0.1373    0.0593
  Pz  C    5    0.0031    0.0009    0.0017    0.0034
  S   C    6    0.0629   -0.0097   -0.0101    0.0383
  Px  C    6    0.1310   -0.0029   -0.0064    0.0734
  Py  C    6    0.0377   -0.2676   -0.2237    0.0711
  Pz  C    6   -0.0005   -0.0039   -0.0033    0.0003
  S   C    7   -0.0565    0.0125   -0.0015    0.0120
  Px  C    7    0.2000    0.0877    0.2489    0.2384
  Py  C    7    0.0020    0.1111    0.1240    0.1534
  Pz  C    7    0.0159    0.0124    0.0247    0.0251
  S   C    8   -0.0609   -0.0097    0.0119    0.0103
  Px  C    8    0.0876   -0.1587   -0.2425    0.2778
  Py  C    8    0.1711   -0.0371   -0.1583    0.1350
  Pz  C    8    0.0095   -0.0120   -0.0176    0.0209
  S   C    9   -0.0570    0.0174    0.0061    0.0016
  Px  C    9    0.0141   -0.1475   -0.2244    0.2820
  Py  C    9   -0.0361    0.2988   -0.1038    0.1420
  Pz  C    9    0.0026   -0.0115   -0.0068    0.0084
  S   C   10   -0.0613   -0.0030    0.0023   -0.0059
  Px  C   10   -0.0105   -0.1724    0.2280    0.2689
  Py  C   10    0.0529    0.2711    0.1383    0.1355
  Pz  C   10    0.0066    0.0007    0.0099    0.0114
  S   C   11   -0.0689    0.0154    0.0186   -0.0049
  Px  C   11   -0.0868   -0.1710    0.2380    0.2576
  Py  C   11   -0.1889   -0.0274    0.1674    0.1279
  Pz  C   11    0.0129    0.0027   -0.0117   -0.0084
  S   H   12   -0.0558    0.0373    0.0161   -0.0071
  S   C   13   -0.0531   -0.0108   -0.0056   -0.0104
  Px  C   13   -0.1700    0.1366   -0.2307    0.2536
  Py  C   13    0.0068    0.1333   -0.1057    0.1591
  Pz  C   13    0.0019   -0.0016    0.0014   -0.0030
  S   H   14   -0.0383    0.0383   -0.0026    0.0142
  S   H   15    0.0695   -0.0033   -0.0020    0.0367
  S   H   16    0.0085   -0.0187   -0.0268    0.0169
  S   H   17    0.0147    0.0214    0.0284    0.0146
  S   H   18    0.0744    0.0011    0.0001    0.0385
  S   H   19   -0.0505   -0.0271    0.0154    0.0031
  S   H   20   -0.0374   -0.0327   -0.0108   -0.0083
  S   C   21    0.0031   -0.0193    0.0177   -0.0235
  Px  C   21   -0.2004   -0.1878    0.1362    0.1729
  Py  C   21   -0.1120   -0.1557    0.1321    0.0609
  Pz  C   21    0.0056    0.0063   -0.0049   -0.0054
  S   C   22    0.0609    0.0079   -0.0144   -0.0393
  Px  C   22   -0.1238   -0.0011    0.0188    0.0752
  Py  C   22   -0.1109   -0.2677    0.2042    0.0716
  Pz  C   22    0.0077   -0.0045    0.0022   -0.0040
  S   C   23    0.0635   -0.0139    0.0020   -0.0393
  Px  C   23   -0.1958    0.2519   -0.1528    0.1086
  Py  C   23   -0.0566   -0.1252    0.0948    0.0342
  Pz  C   23    0.0099   -0.0165    0.0099   -0.0053
  S   C   24    0.0210    0.0081   -0.0173   -0.0295
  Px  C   24   -0.2475    0.2542   -0.1388    0.1504
  Py  C   24   -0.1947    0.1197   -0.0233    0.1372
  Pz  C   24   -0.0007   -0.0041    0.0048    0.0023
  S   H   25   -0.0029   -0.0222    0.0280   -0.0123
  S   H   26    0.0715    0.0053   -0.0124   -0.0402
  S   H   27    0.0852   -0.0081   -0.0062   -0.0445
  S   H   28    0.0252    0.0110   -0.0277   -0.0206
  S   C   29   -0.0104    0.0039   -0.0085   -0.0269
  Px  C   29   -0.1946   -0.1767    0.1317    0.2027
  Py  C   29   -0.1742   -0.0059    0.2394    0.1372
  Pz  C   29    0.0139    0.0084   -0.0125   -0.0132
  S   C   30   -0.0201    0.0080    0.0058   -0.0191
  Px  C   30   -0.2083    0.1241   -0.2239    0.2302
  Py  C   30   -0.2121    0.1749    0.0391    0.1193
  Pz  C   30   -0.0076    0.0055    0.0010    0.0027


              NET ATOMIC CHARGES AND DIPOLE CONTRIBUTIONS

  ATOM NO.   TYPE          CHARGE      No. of ELECS.   s-Pop       p-Pop       
    1          C          -0.024316        4.0243     1.09988     2.92444
    2          C          -0.025206        4.0252     1.10825     2.91695
    3          C           0.009670        3.9903     1.06960     2.92073
    4          C           0.012319        3.9877     1.07159     2.91609
    5          C          -0.034631        4.0346     1.10747     2.92716
    6          C          -0.021351        4.0214     1.08933     2.93202
    7          C          -0.037940        4.0379     1.10402     2.93392
    8          C          -0.036193        4.0362     1.10477     2.93142
    9          C           0.016384        3.9836     1.06066     2.92295
   10          C           0.011514        3.9885     1.06707     2.92141
   11          C          -0.035134        4.0351     1.10041     2.93472
   12          H           0.027235        0.9728     0.97277
   13          C          -0.040557        4.0406     1.10786     2.93270
   14          H           0.024600        0.9754     0.97540
   15          H           0.020892        0.9791     0.97911
   16          H           0.021481        0.9785     0.97852
   17          H           0.024673        0.9753     0.97533
   18          H           0.023775        0.9762     0.97622
   19          H           0.020424        0.9796     0.97958
   20          H           0.027419        0.9726     0.97258
   21          C          -0.030106        4.0301     1.10578     2.92433
   22          C          -0.024654        4.0247     1.10181     2.92284
   23          C          -0.039678        4.0397     1.09900     2.94068
   24          C          -0.028885        4.0289     1.09663     2.93226
   25          H           0.025658        0.9743     0.97434
   26          H           0.024055        0.9759     0.97594
   27          H           0.028197        0.9718     0.97180
   28          H           0.027109        0.9729     0.97289
   29          C           0.015812        3.9842     1.06200     2.92219
   30          C           0.017431        3.9826     1.05756     2.92501
 DIPOLE           X         Y         Z       TOTAL
 POINT-CHG.     0.093     0.012    -0.050     0.106
 HYBRID        -0.034     0.086    -0.340     0.352
 SUM            0.059     0.098    -0.390     0.407


          ATOMIC ORBITAL ELECTRON POPULATIONS

     Atom    s        px        py        pz   
    1  C   1.09988   0.97536   0.94679   1.00229
    2  C   1.10825   0.97306   0.94228   1.00161
    3  C   1.06960   0.97127   0.96317   0.98629
    4  C   1.07159   0.96240   0.97452   0.97917
    5  C   1.10747   0.96408   0.95576   1.00732
    6  C   1.08933   0.94830   0.98910   0.99462
    7  C   1.10402   0.97040   0.95012   1.01340
    8  C   1.10477   0.96875   0.94265   1.02002
    9  C   1.06066   0.97274   0.97142   0.97879
   10  C   1.06707   0.96319   0.97156   0.98667
   11  C   1.10041   0.96094   0.95603   1.01775
   12  H   0.97277
   13  C   1.10786   0.97112   0.94746   1.01412
   14  H   0.97540
   15  H   0.97911
   16  H   0.97852
   17  H   0.97533
   18  H   0.97622
   19  H   0.97958
   20  H   0.97258
   21  C   1.10578   0.96861   0.94595   1.00977
   22  C   1.10181   0.94357   0.98599   0.99327
   23  C   1.09900   0.98314   0.95471   1.00282
   24  C   1.09663   0.98012   0.95325   0.99888
   25  H   0.97434
   26  H   0.97594
   27  H   0.97180
   28  H   0.97289
   29  C   1.06200   0.96645   0.97317   0.98258
   30  C   1.05756   0.97530   0.96806   0.98165

 **********************
 *                    *
 * JOB ENDED NORMALLY *
 *                    *
 **********************



 TOTAL JOB TIME:             0.88 SECONDS

 == MOPAC DONE ==


          MOPAC Job: "./tetraceneTraj/tetracene_1313.mop" ended normally on Feb 15, 2023, at 11:32.

rm: cannot remove ./tetraceneTraj/tetracene_1313.cim: No such file or directory
rm: cannot remove ./tetraceneTraj/tetracene_1313.end: No such file or directory
rm: cannot remove ./tetraceneTraj/tetracene_1313.log: No such file or directory
rm: cannot remove ./tetraceneTraj/tetracene_1313.temp: No such file or directory
rm: cannot remove ./tetraceneTraj/tetracene_1313.ple: No such file or directory
rm: cannot remove ./tetraceneTraj/tetracene_1313.sts: No such file or directory
