 *******************************************************************************
 ** Site#:    0         For non-commercial use only    Version 20.173L 64BITS **
 *******************************************************************************
 ** Cite this program as: MOPAC2016, Version: 20.173L, James J. P. Stewart,   **
 ** Stewart Computational Chemistry, web-site: HTTP://OpenMOPAC.net.          **
 *******************************************************************************
 **                                                                           **
 **                                MOPAC2016                                  **
 **                                                                           **
 *******************************************************************************

                              INDO CALCULATION RESULTS

 *******************************************************************************
 *  CALCULATION DONE:                                Wed Feb 15 11:26:57 2023  *
 *  INDO       - The INDO Hamiltonian to be used
 *
 *
 *
 *                 CHARGE ON SYSTEM = 0
 *
 *
 *
 *  C.I.=(N,M) - 3 DOUBLY FILLED LEVELS USED IN A C.I. INVOLVING 6 M.O.'S
 *  T=         - A TIME OF 172800.0 SECONDS REQUESTED
 *  DUMP=N     - RESTART FILE WRITTEN EVERY 7200.0 SECONDS REQUESTED
 *  RELSCF     - DEFAULT SCF CRITERION MULTIPLIED BY 0.0000
 *              (DEFAULT SCF CRITERION = 0.00010)
 *  ALLVEC     - PRINT ALL EIGENVECTORS
 **********
 *  WARNING: Specified print options may not behave as expected with INDO
 **********
 *******************************************************************************
INDO C.I.=(6,3) AllVEC CHARGE=0 RELSCF=0.000001


   ATOM   CHEMICAL          X               Y               Z
  NUMBER   SYMBOL      (ANGSTROMS)     (ANGSTROMS)     (ANGSTROMS)
 
     1       C         18.45606477  *  19.49911303  *  22.27705395  *
     2       C         19.85590744  *  19.46689948  *  22.34022162  *
     3       C         20.68441028  *  20.66145064  *  22.38990043  *
     4       C         19.95592871  *  21.96703711  *  22.38210983  *
     5       C         18.49187556  *  21.95152294  *  22.45164693  *
     6       C         17.80828549  *  20.77902326  *  22.43941053  *
     7       C         22.08743014  *  20.63462476  *  22.48278670  *
     8       C         20.74360976  *  23.15866983  *  22.36857573  *
     9       C         22.17297951  *  23.06631741  *  22.50179570  *
    10       C         22.87817582  *  21.82767705  *  22.48166051  *
    11       C         24.28922812  *  21.84429645  *  22.58924268  *
    12       H         24.79205759  *  20.85618335  *  22.53575569  *
    13       C         22.92480549  *  24.28002760  *  22.56398414  *
    14       H         22.60968061  *  19.70048494  *  22.47577670  *
    15       H         17.89237671  *  18.56565830  *  22.16496886  *
    16       H         20.39015657  *  18.55974707  *  22.39117492  *
    17       H         17.95219377  *  22.92883796  *  22.48570007  *
    18       H         16.74915556  *  20.72698866  *  22.28269582  *
    19       H         20.30311353  *  24.16271197  *  22.40807252  *
    20       H         22.37462477  *  25.25387368  *  22.56285262  *
    21       C         26.49655870  *  23.08667512  *  22.65831240  *
    22       C         27.17380294  *  24.25643089  *  22.49324526  *
    23       C         26.45681785  *  25.53588386  *  22.54466641  *
    24       C         25.08998468  *  25.59491900  *  22.68004116  *
    25       H         27.06798320  *  22.13317317  *  22.73787733  *
    26       H         28.28221031  *  24.25698240  *  22.48271804  *
    27       H         27.12652038  *  26.44309656  *  22.46169378  *
    28       H         24.56720859  *  26.49936934  *  22.90528722  *
    29       C         25.06257133  *  23.02347006  *  22.69563994  *
    30       C         24.36255258  *  24.35864515  *  22.66855781  *
 


          CARTESIAN COORDINATES 

    NO.       ATOM           X           Y           Z

     1         C         18.4561     19.4991     22.2771
     2         C         19.8559     19.4669     22.3402
     3         C         20.6844     20.6615     22.3899
     4         C         19.9559     21.9670     22.3821
     5         C         18.4919     21.9515     22.4516
     6         C         17.8083     20.7790     22.4394
     7         C         22.0874     20.6346     22.4828
     8         C         20.7436     23.1587     22.3686
     9         C         22.1730     23.0663     22.5018
    10         C         22.8782     21.8277     22.4817
    11         C         24.2892     21.8443     22.5892
    12         H         24.7921     20.8562     22.5358
    13         C         22.9248     24.2800     22.5640
    14         H         22.6097     19.7005     22.4758
    15         H         17.8924     18.5657     22.1650
    16         H         20.3902     18.5597     22.3912
    17         H         17.9522     22.9288     22.4857
    18         H         16.7492     20.7270     22.2827
    19         H         20.3031     24.1627     22.4081
    20         H         22.3746     25.2539     22.5629
    21         C         26.4966     23.0867     22.6583
    22         C         27.1738     24.2564     22.4932
    23         C         26.4568     25.5359     22.5447
    24         C         25.0900     25.5949     22.6800
    25         H         27.0680     22.1332     22.7379
    26         H         28.2822     24.2570     22.4827
    27         H         27.1265     26.4431     22.4617
    28         H         24.5672     26.4994     22.9053
    29         C         25.0626     23.0235     22.6956
    30         C         24.3626     24.3586     22.6686

           Empirical Formula: C18 H12  =    30 atoms



      MOLECULAR POINT GROUP   :   Cs  


      RHF CALCULATION, NO. OF DOUBLY OCCUPIED LEVELS = 42

 WARNING: INDO only performs single-point calculations
  SCF CRITERION =    0.1000E-09

 Summary of symmetry occupancy in each shell:

 SHELL     
    1   42
    v   42
 TOTAL  84




    ROOT NO.    1           2           3           4           5           6

           -44.65191   -42.96331   -40.70710   -36.91695   -35.64103   -34.07254
  
  
  S  C   1   0.11592    -0.21755    -0.27040     0.23498    -0.06082     0.11981
 PX  C   1   0.03056    -0.04934    -0.04433     0.00072    -0.04663     0.08194
 PY  C   1   0.04198    -0.07568    -0.08752     0.06423     0.02324    -0.04435
 PZ  C   1   0.00523    -0.00959    -0.01139     0.00865    -0.00097     0.00160
  
  S  C   2   0.14990    -0.23911    -0.22481     0.08016    -0.18037     0.28044
 PX  C   2  -0.00156     0.02698     0.07200    -0.11231    -0.04487     0.03792
 PY  C   2   0.05719    -0.08305    -0.06234    -0.00448    -0.01068     0.00491
 PZ  C   2   0.00225    -0.00267    -0.00073    -0.00295    -0.00270     0.00248
  
  S  C   3   0.26447    -0.28868    -0.07545    -0.20516    -0.17196     0.18828
 PX  C   3   0.00880     0.05308     0.13865    -0.12999    -0.07432     0.04263
 PY  C   3   0.05294    -0.02411     0.05751    -0.08891     0.09887    -0.13654
 PZ  C   3   0.00331    -0.00109     0.00448    -0.00656    -0.00280     0.00053
  
  S  C   4   0.25535    -0.28221    -0.08418    -0.17137     0.17790    -0.20708
 PX  C   4   0.05040     0.00650     0.12408    -0.15900    -0.02441     0.06126
 PY  C   4  -0.02768     0.06305     0.08203    -0.04485     0.11083    -0.10711
 PZ  C   4   0.00380    -0.00335     0.00018    -0.00248     0.00329    -0.00405
  
  S  C   5   0.14338    -0.23364    -0.23220     0.12294     0.16993    -0.26260
 PX  C   5   0.04345    -0.05075    -0.01235    -0.05944     0.03231    -0.02733
 PY  C   5  -0.03739     0.07505     0.09953    -0.09027     0.02088    -0.01792
 PZ  C   5  -0.00305     0.00562     0.00643    -0.00403    -0.00200     0.00287
  
  S  C   6   0.12003    -0.22600    -0.28326     0.25708     0.06449    -0.11315
 PX  C   6   0.05120    -0.08847    -0.09398     0.04892     0.00622    -0.00551
 PY  C   6   0.00280    -0.00111     0.00684    -0.02151     0.05126    -0.09423
 PZ  C   6  -0.00460     0.00922     0.01251    -0.01290    -0.00051     0.00063
  
  S  C   7   0.24549    -0.14254     0.14563    -0.24248    -0.30373     0.17164
 PX  C   7  -0.02721     0.06749     0.04378     0.09017    -0.02242    -0.06135
 PY  C   7   0.08222    -0.02037     0.08500    -0.05528     0.00699    -0.05019
 PZ  C   7  -0.00387     0.00494     0.00002     0.00902     0.00398    -0.00601
  
  S  C   8   0.23311    -0.13266     0.13627    -0.21497     0.32205    -0.19624
 PX  C   8   0.05369     0.01753     0.09103    -0.00574     0.02543     0.05915
 PY  C   8  -0.06836     0.06723    -0.01238     0.10302     0.01568     0.04076
 PZ  C   8   0.00925    -0.00338     0.00763    -0.00601     0.01263    -0.00457
  
  S  C   9   0.34173    -0.01632     0.29441     0.00638     0.23030    -0.02356
 PX  C   9   0.02967     0.08045     0.02789     0.19353    -0.08358     0.06816
 PY  C   9  -0.05238     0.04633    -0.04324     0.09933     0.14109     0.02707
 PZ  C   9  -0.00256     0.00544    -0.00264     0.01395    -0.00486     0.00502
  
  S  C  10   0.34271    -0.01322     0.29951     0.01860    -0.21416     0.00303
 PX  C  10  -0.03034     0.08287    -0.02317     0.19792    -0.07277    -0.03686
 PY  C  10   0.05350     0.04327     0.04422     0.11116     0.13325    -0.03200
 PZ  C  10   0.00627     0.00441     0.00593     0.01286    -0.00659    -0.00161
  
  S  C  11   0.24382     0.12427     0.15126     0.25505    -0.29350    -0.14883
 PX  C  11  -0.05527     0.02596    -0.09438    -0.01071     0.01285    -0.07535
 PY  C  11   0.06751     0.06569     0.01157     0.10542     0.02151    -0.03037
 PZ  C  11  -0.00258     0.00152    -0.00424     0.00209     0.00353    -0.00304
  
  S  H  12   0.07412     0.03533     0.04498     0.06895    -0.15186    -0.07503
  
  S  C  13   0.23974     0.12203     0.14123     0.22365     0.30336     0.17693
 PX  C  13   0.02760     0.07015    -0.04088     0.08068    -0.03477     0.08512
 PY  C  13  -0.08093    -0.01047    -0.08666    -0.06481    -0.00013     0.05293
 PZ  C  13   0.00016     0.00361    -0.00320     0.00561    -0.00092     0.00753
  
  S  H  14   0.07805    -0.04415     0.04406    -0.06985    -0.16285     0.09297
  
  S  H  15   0.02968    -0.05902    -0.08037     0.08469    -0.02691     0.05548
  
  S  H  16   0.04971    -0.07554    -0.06461     0.01111    -0.10059     0.15043
  
  S  H  17   0.04140    -0.06535    -0.06232     0.03184     0.08455    -0.12778
  
  S  H  18   0.03299    -0.06615    -0.09147     0.10190     0.02714    -0.05060
  
  S  H  19   0.07118    -0.03619     0.04144    -0.05267     0.16310    -0.08699
  
  S  H  20   0.07252     0.03591     0.03867     0.05505     0.15850     0.08748
  
  S  C  21   0.15716     0.25004    -0.21157    -0.10238    -0.18003    -0.31505
 PX  C  21  -0.04922    -0.05720     0.01347    -0.06055     0.03038     0.01463
 PY  C  21   0.03798     0.07621    -0.09003    -0.09314     0.02154     0.00991
 PZ  C  21  -0.00356    -0.00597     0.00592     0.00587     0.00238     0.00563
  
  S  C  22   0.12546     0.23107    -0.24957    -0.23780    -0.07231    -0.16735
 PX  C  22  -0.05592    -0.09540     0.08917     0.05396     0.00690     0.00870
 PY  C  22  -0.00561    -0.00570    -0.00225    -0.02255     0.05407     0.10691
 PZ  C  22   0.00722     0.01333    -0.01413    -0.01178    -0.00431    -0.00970
  
  S  C  23   0.12447     0.22948    -0.24848    -0.24048     0.06350     0.11678
 PX  C  23  -0.03327    -0.05379     0.04458     0.01234    -0.05186    -0.10563
 PY  C  23  -0.04559    -0.08011     0.07926     0.05904     0.02353     0.05495
 PZ  C  23   0.00360     0.00647    -0.00645    -0.00419     0.00383     0.00787
  
  S  C  24   0.15233     0.24424    -0.21125    -0.11945     0.18177     0.31688
 PX  C  24   0.00802     0.03546    -0.06641    -0.10033    -0.03713    -0.04055
 PY  C  24  -0.06088    -0.08863     0.06113     0.00383    -0.01755    -0.02031
 PZ  C  24  -0.00288    -0.00487     0.00485     0.00475     0.00087     0.00178
  
  S  H  25   0.04583     0.07074    -0.05696    -0.02258    -0.08920    -0.15151
  
  S  H  26   0.03166     0.06199    -0.07368    -0.08570    -0.03075    -0.07548
  
  S  H  27   0.03013     0.05919    -0.07082    -0.08456     0.02358     0.04529
  
  S  H  28   0.04689     0.07260    -0.05974    -0.03061     0.09396     0.15967
  
  S  C  29   0.26592     0.28635    -0.06691     0.18987    -0.17243    -0.19331
 PX  C  29  -0.04550     0.01800    -0.12008    -0.15687    -0.03826    -0.10163
 PY  C  29   0.02740     0.06658    -0.08227    -0.06478     0.10315     0.10031
 PZ  C  29  -0.01107    -0.01016    -0.00039    -0.00927     0.00765     0.00782
  
  S  C  30   0.26174     0.28886    -0.08256     0.15643     0.16826     0.23288
 PX  C  30   0.00114     0.06582    -0.12911    -0.13118    -0.07181    -0.05185
 PY  C  30  -0.05329    -0.01933    -0.06226    -0.11331     0.08978     0.13594
 PZ  C  30  -0.00604    -0.00438    -0.00222    -0.00590    -0.00389    -0.00246




    ROOT NO.    7           8           9          10          11          12

           -32.03197   -31.44567   -28.71595   -28.38458   -26.93267   -26.00863
  
  
  S  C   1   0.13581     0.29028     0.17906    -0.25746    -0.03672    -0.19292
 PX  C   1   0.12172    -0.06666     0.11584     0.14747     0.02590    -0.07111
 PY  C   1  -0.07633     0.01483    -0.09359     0.01134    -0.06153     0.09604
 PZ  C   1   0.00038     0.00522    -0.00122    -0.00021    -0.00407     0.00338
  
  S  C   2   0.31082    -0.00195     0.17272     0.12194     0.10938    -0.01922
 PX  C   2   0.00098    -0.14277    -0.13298     0.11823     0.07934     0.20201
 PY  C   2  -0.00910    -0.08018    -0.05735     0.08920    -0.09006     0.07682
 PZ  C   2   0.00001    -0.00653    -0.00789     0.00704     0.00282     0.01202
  
  S  C   3   0.12546    -0.22842    -0.10680     0.11571    -0.09390     0.17183
 PX  C   3  -0.06400     0.03919    -0.15705    -0.14693     0.07421     0.08591
 PY  C   3  -0.10148    -0.02314     0.02762    -0.09745    -0.19530    -0.11885
 PZ  C   3  -0.00508    -0.00094    -0.00972    -0.00424     0.00090     0.00500
  
  S  C   4  -0.05465    -0.27796     0.14556     0.09568    -0.09990    -0.19531
 PX  C   4   0.10197     0.03333     0.03832    -0.17494    -0.11718     0.04518
 PY  C   4  -0.01607     0.02624     0.10253    -0.09640     0.16306    -0.09259
 PZ  C   4  -0.00323    -0.00287    -0.00220     0.00333     0.00158     0.00041
  
  S  C   5  -0.28394    -0.10874    -0.14806     0.17184     0.12650     0.03501
 PX  C   5   0.04842    -0.13889     0.15275     0.10599    -0.04808    -0.19511
 PY  C   5   0.02658    -0.07352     0.07605     0.02585     0.09366    -0.09062
 PZ  C   5   0.00240    -0.00008    -0.00154     0.00050     0.00262     0.00391
  
  S  C   6  -0.20918     0.22914    -0.21859    -0.19556    -0.00780     0.19005
 PX  C   6   0.00870    -0.03757     0.04818     0.09956    -0.04096    -0.07611
 PY  C   6  -0.12094    -0.11406    -0.12479     0.16140     0.07670     0.11409
 PZ  C   6   0.00380    -0.01838     0.00354     0.02211     0.00518    -0.00218
  
  S  C   7  -0.15038    -0.00222    -0.25985    -0.10254     0.17032     0.02373
 PX  C   7  -0.14174     0.12256     0.05950    -0.01563     0.11439    -0.20006
 PY  C   7  -0.08109     0.07597     0.03098    -0.08709    -0.17281    -0.11229
 PZ  C   7  -0.00477     0.00559     0.00725     0.00279     0.00034    -0.00987
  
  S  C   8   0.14286     0.00985     0.22119    -0.15614     0.19101    -0.00670
 PX  C   8   0.09658     0.16829    -0.06462    -0.06597    -0.04681     0.18574
 PY  C   8   0.05844     0.08167    -0.03401     0.04475     0.19688     0.10329
 PZ  C   8   0.00796     0.00689     0.00273    -0.00485     0.00756     0.00786
  
  S  C   9   0.16305     0.26350    -0.00006     0.00778    -0.07727     0.16806
 PX  C   9  -0.06378     0.01117    -0.08196     0.19506    -0.12442    -0.04957
 PY  C   9   0.15041    -0.00890    -0.04675     0.09266     0.23122     0.10858
 PZ  C   9  -0.00423    -0.00541    -0.00714     0.01552    -0.00036    -0.00662
  
  S  C  10  -0.24755     0.20869     0.01607     0.01762    -0.08269    -0.17373
 PX  C  10  -0.05664    -0.04030     0.13483     0.16263     0.13536    -0.05573
 PY  C  10   0.12206     0.04043     0.06433     0.09970    -0.21596     0.11576
 PZ  C  10  -0.00780     0.00195     0.00694     0.01122    -0.00034    -0.00650
  
  S  C  11  -0.15544    -0.04923     0.27048     0.08362     0.18562     0.00374
 PX  C  11   0.12848    -0.13929     0.03949    -0.10892     0.07029     0.18145
 PY  C  11   0.08064    -0.07271     0.02118     0.03065    -0.17684     0.12643
 PZ  C  11   0.00977    -0.01094     0.00135    -0.00544    -0.00514     0.01556
  
  S  H  12  -0.08219    -0.02296     0.12576    -0.00427     0.21611    -0.01855
  
  S  C  13   0.17793     0.02641    -0.23703     0.14851     0.15752    -0.04085
 PX  C  13  -0.08840    -0.15712    -0.06380    -0.00014    -0.13744    -0.18617
 PY  C  13  -0.04928    -0.09283    -0.04802    -0.08942     0.14062    -0.13723
 PZ  C  13  -0.00608    -0.01335    -0.00719    -0.00035    -0.00365    -0.01722
  
  S  H  14  -0.07249    -0.00538    -0.12400    -0.01164     0.22173     0.01202
  
  S  H  15   0.06760     0.15412     0.10111    -0.17814     0.00452    -0.12616
  
  S  H  16   0.15878    -0.00296     0.07295     0.05269     0.13506     0.01374
  
  S  H  17  -0.13458    -0.05089    -0.07361     0.06740     0.13113     0.02639
  
  S  H  18  -0.10603     0.13900    -0.13524    -0.16308     0.01718     0.14073
  
  S  H  19   0.07861     0.00819     0.10046    -0.03713     0.22611     0.00842
  
  S  H  20   0.08471     0.01014    -0.11531     0.02502     0.20384    -0.03778
  
  S  C  21   0.25434    -0.00363    -0.16959    -0.12958     0.10208    -0.06799
 PX  C  21   0.00732     0.15018    -0.10940     0.15564     0.04148    -0.20524
 PY  C  21   0.00291     0.08893    -0.06981     0.06842    -0.10022    -0.08345
 PZ  C  21  -0.00461    -0.01032     0.00860    -0.01165     0.00274     0.01343
  
  S  C  22   0.11399     0.28449    -0.14778     0.27024    -0.01422    -0.17992
 PX  C  22   0.00232     0.02284    -0.01959     0.09094     0.04511    -0.07272
 PY  C  22  -0.12625     0.05897     0.15237     0.12348    -0.05412     0.14527
 PZ  C  22   0.00844     0.00657    -0.01105    -0.00316     0.00005    -0.00922
  
  S  C  23  -0.19370     0.22904     0.23838     0.21820    -0.00884     0.21742
 PX  C  23   0.09208     0.09514    -0.07303     0.17751    -0.02757    -0.04621
 PY  C  23  -0.05536    -0.03679     0.08873    -0.01423     0.06796     0.08438
 PZ  C  23  -0.00779    -0.00579     0.00618    -0.01599     0.00402     0.00271
  
  S  C  24  -0.26129    -0.06848     0.14371    -0.14593     0.11052    -0.00122
 PX  C  24  -0.04972     0.12246     0.15610     0.08232    -0.05467     0.21271
 PY  C  24  -0.02043     0.06520     0.08318     0.06867     0.08727     0.07830
 PZ  C  24   0.00085    -0.00780    -0.00512    -0.01021     0.00942    -0.01234
  
  S  H  25   0.12065    -0.00219    -0.07701    -0.05225     0.12012    -0.05429
  
  S  H  26   0.05634     0.15066    -0.08422     0.18630     0.01939    -0.13471
  
  S  H  27  -0.08667     0.12388     0.13153     0.16053     0.01749     0.13191
  
  S  H  28  -0.12430    -0.03738     0.06555    -0.06485     0.12370    -0.02676
  
  S  C  29   0.11172    -0.25290     0.09409    -0.14797    -0.07869     0.20488
 PX  C  29   0.09021     0.01175    -0.06515    -0.16361     0.10325     0.02558
 PY  C  29   0.01132    -0.01376    -0.14174    -0.04920    -0.16900    -0.08347
 PZ  C  29  -0.00211     0.00301    -0.00609    -0.00506     0.00218    -0.00443
  
  S  C  30  -0.02770    -0.24483    -0.15290    -0.09764    -0.10459    -0.17261
 PX  C  30  -0.05639    -0.02324     0.11714    -0.15598    -0.06890     0.10324
 PY  C  30  -0.09909     0.01211    -0.01698    -0.08596     0.16847    -0.13368
 PZ  C  30  -0.00318    -0.00273     0.00495    -0.01039     0.00181     0.00103




    ROOT NO.   13          14          15          16          17          18

           -25.09593   -24.25238   -22.91212   -21.58316   -20.60218   -19.37004
  
  
  S  C   1   0.03385     0.11866    -0.00268     0.17272    -0.05979    -0.02016
 PX  C   1   0.02574    -0.22151     0.02338     0.02551     0.22050     0.17868
 PY  C   1  -0.15722     0.01720     0.19562    -0.12363    -0.09733     0.20962
 PZ  C   1  -0.01099    -0.00350     0.01810    -0.00911    -0.00286     0.03376
  
  S  C   2   0.13843    -0.18591    -0.10559    -0.11185     0.13076     0.03747
 PX  C   2   0.04376     0.02366    -0.08401    -0.20585    -0.11472    -0.13505
 PY  C   2  -0.19831     0.02372     0.21185    -0.06924    -0.13189     0.07379
 PZ  C   2  -0.00148     0.00003     0.00199    -0.01168    -0.00903     0.00522
  
  S  C   3  -0.14668     0.10961     0.00767    -0.10424    -0.05606    -0.14886
 PX  C   3   0.13900     0.12802    -0.15997     0.10769    -0.02278    -0.01236
 PY  C   3  -0.15353     0.09576     0.02437     0.12731     0.11846    -0.09538
 PZ  C   3   0.00315     0.00525    -0.00467     0.01097    -0.00292     0.00402
  
  S  C   4  -0.06179     0.11266     0.00969     0.07569    -0.09265    -0.15049
 PX  C   4  -0.08041     0.15981    -0.07605    -0.16912     0.12427    -0.05502
 PY  C   4   0.24847     0.06428    -0.15442    -0.02707    -0.08606     0.05447
 PZ  C   4   0.00190    -0.00655    -0.00071     0.01122     0.00408     0.00247
  
  S  C   5   0.15175    -0.18978    -0.11000     0.13312     0.10269    -0.01233
 PX  C   5  -0.06189     0.02786     0.14023     0.14786    -0.21775    -0.01991
 PY  C   5   0.17645     0.01418    -0.17229     0.08916    -0.05335    -0.18751
 PZ  C   5   0.00471    -0.00633    -0.00772     0.00158     0.01536     0.00213
  
  S  C   6  -0.03727     0.11338    -0.00664    -0.16994    -0.02026     0.03673
 PX  C   6  -0.08931    -0.12507     0.17944     0.13847     0.02686     0.23371
 PY  C   6   0.07459    -0.19905    -0.09792    -0.02782     0.25297     0.03432
 PZ  C   6   0.00558    -0.02520    -0.00252     0.00943     0.02666     0.01628
  
  S  C   7   0.12034     0.09859     0.06790     0.21223    -0.08238     0.13473
 PX  C   7   0.04794    -0.12351     0.18493     0.08124     0.02117     0.15168
 PY  C   7  -0.09252    -0.08341    -0.03632     0.03153     0.23034    -0.02670
 PZ  C   7  -0.00021    -0.00808     0.00658     0.00200    -0.00067     0.00835
  
  S  C   8   0.13423     0.10481     0.04427    -0.20239    -0.04405     0.18277
 PX  C   8  -0.12000    -0.14340     0.07634    -0.02802     0.20740     0.05097
 PY  C   8   0.04827    -0.06657     0.16464    -0.03899    -0.09493     0.14078
 PZ  C   8   0.00062    -0.00593     0.00541     0.00093     0.00732     0.00642
  
  S  C   9  -0.03592    -0.22993    -0.01945     0.00257     0.00641    -0.00399
 PX  C   9   0.01173    -0.06100    -0.09842     0.13073    -0.20634    -0.14431
 PY  C   9  -0.01085     0.08012     0.19774     0.06718    -0.11071    -0.09011
 PZ  C   9   0.00201     0.00521    -0.00313     0.01650    -0.01918    -0.00896
  
  S  C  10   0.01492    -0.21171    -0.00097    -0.01227     0.00513     0.00311
 PX  C  10   0.00445     0.06009     0.10308    -0.20134    -0.16425    -0.13291
 PY  C  10  -0.02043    -0.09676    -0.20648    -0.09811    -0.09775    -0.06612
 PZ  C  10   0.00179    -0.00052    -0.00057    -0.00601    -0.01307     0.00152
  
  S  C  11  -0.12446     0.12193     0.04501    -0.20449     0.08025    -0.13432
 PX  C  11  -0.09860     0.14462    -0.06559     0.09709     0.19309     0.05507
 PY  C  11   0.06209     0.05395    -0.17502     0.05581    -0.10988     0.16252
 PZ  C  11  -0.00207     0.01352    -0.01583     0.01364     0.00596     0.02689
  
  S  H  12  -0.12605     0.07373     0.10710    -0.09954     0.16385    -0.15315
  
  S  C  13  -0.11034     0.11366     0.06653     0.21020     0.03903    -0.18175
 PX  C  13   0.05510     0.14720    -0.16991    -0.04770     0.02955     0.15856
 PY  C  13  -0.08797     0.11273     0.03564     0.00734     0.22803    -0.02878
 PZ  C  13  -0.00046     0.01593    -0.01394     0.00141     0.00478     0.01769
  
  S  H  14   0.12946     0.05992     0.11429     0.11120    -0.16971     0.13749
  
  S  H  15   0.09249     0.12522    -0.12016     0.15531    -0.05450    -0.21589
  
  S  H  16   0.19870    -0.10196    -0.20170    -0.08416     0.10318    -0.06901
  
  S  H  17   0.19483    -0.09595    -0.19813     0.06835     0.09155    -0.11414
  
  S  H  18   0.03295     0.14826    -0.11881    -0.18403    -0.04269    -0.16074
  
  S  H  19   0.12503     0.05403     0.10315    -0.11248    -0.13500     0.16587
  
  S  H  20  -0.12254     0.07354     0.10730     0.11796     0.14125    -0.15992
  
  S  C  21  -0.16667    -0.18108    -0.09194     0.10898    -0.11279    -0.03064
 PX  C  21  -0.10436    -0.00196    -0.14105    -0.16497    -0.16359     0.01478
 PY  C  21   0.17383    -0.02037     0.15525    -0.14675    -0.03154    -0.12925
 PZ  C  21  -0.00479    -0.00222    -0.00436     0.02210     0.00594     0.01760
  
  S  C  22   0.02092     0.13858    -0.01473    -0.15819     0.05536     0.01578
 PX  C  22  -0.10524     0.12906    -0.17571    -0.06604     0.02590     0.24645
 PY  C  22   0.10868     0.19680     0.09123     0.08097     0.22886     0.01670
 PZ  C  22  -0.00016    -0.01782     0.00354    -0.00422    -0.01890    -0.01272
  
  S  C  23   0.00624     0.12927     0.00079     0.18289     0.02609    -0.02837
 PX  C  23   0.04760     0.24132    -0.00978     0.05614     0.21344     0.13349
 PY  C  23  -0.15187     0.00234    -0.18411     0.14810    -0.11624     0.16759
 PZ  C  23  -0.00849    -0.02802    -0.00428    -0.00971    -0.03088    -0.00644
  
  S  C  24  -0.18234    -0.17133    -0.11947    -0.10887    -0.10385     0.01643
 PX  C  24   0.07187    -0.04059     0.07195     0.13842    -0.14771    -0.13930
 PY  C  24  -0.18653    -0.00139    -0.19976     0.10451    -0.15155     0.10005
 PZ  C  24  -0.01930    -0.00886    -0.02315    -0.01580    -0.00885     0.03382
  
  S  H  25  -0.21390    -0.07969    -0.18028     0.08011    -0.09374     0.06719
  
  S  H  26  -0.05432     0.15379    -0.12381    -0.12745     0.04881     0.19421
  
  S  H  27  -0.05355     0.15905    -0.10059     0.19802     0.03983     0.14818
  
  S  H  28  -0.22201    -0.07790    -0.19864    -0.04117    -0.09332     0.12019
  
  S  C  29   0.09355     0.08801     0.00018     0.11008     0.05175     0.14927
 PX  C  29  -0.08531    -0.16616     0.08224     0.16240     0.08768    -0.11093
 PY  C  29   0.24268    -0.08426     0.14398    -0.00621    -0.08909     0.03782
 PZ  C  29  -0.00166    -0.00490    -0.00133     0.00780     0.00149     0.01934
  
  S  C  30   0.14143     0.10451     0.01654    -0.08664     0.08040     0.13727
 PX  C  30   0.13368    -0.16793     0.15029    -0.12120    -0.02046    -0.00794
 PY  C  30  -0.18415    -0.08495    -0.01306    -0.11754     0.14276    -0.10198
 PZ  C  30  -0.00213    -0.00754    -0.00411    -0.00821    -0.00221     0.02563




    ROOT NO.   19          20          21          22          23          24

           -18.52952   -17.27331   -16.78993   -16.58339   -16.08026   -15.33124
  
  
  S  C   1  -0.16209     0.00578     0.07223    -0.09105     0.02694     0.07243
 PX  C   1   0.04992    -0.18838     0.02086     0.02677     0.14981     0.12385
 PY  C   1   0.15068     0.16255    -0.05251     0.01870     0.19981     0.08026
 PZ  C   1   0.01752     0.01729    -0.01446     0.00714     0.05444    -0.00780
  
  S  C   2   0.16157     0.00300    -0.02318     0.05790     0.00975     0.01385
 PX  C   2   0.12611     0.19465    -0.06557     0.03870    -0.15318    -0.13573
 PY  C   2  -0.03335     0.09558     0.19976    -0.16828    -0.08631     0.23739
 PZ  C   2   0.00758     0.02183    -0.01262     0.00621     0.01875    -0.03476
  
  S  C   3  -0.05837    -0.03372     0.19943    -0.09994    -0.09186     0.02997
 PX  C   3  -0.16849     0.01265     0.04520    -0.06187     0.25931    -0.05523
 PY  C   3  -0.06533    -0.25051    -0.04907     0.08944    -0.03517    -0.10101
 PZ  C   3  -0.01987     0.00699    -0.00005     0.00104     0.02664    -0.05164
  
  S  C   4   0.05680    -0.01852    -0.18359     0.13451    -0.05918    -0.06323
 PX  C   4   0.11548    -0.24705     0.03187     0.00889     0.04294     0.16468
 PY  C   4   0.11328     0.13411    -0.10408     0.01647     0.22151     0.11152
 PZ  C   4  -0.02057     0.00859     0.00056    -0.00093     0.00311    -0.04633
  
  S  C   5  -0.15339     0.00932     0.02484    -0.06078    -0.01208    -0.00577
 PX  C   5  -0.01397     0.23576    -0.14467     0.08763    -0.05413    -0.19075
 PY  C   5  -0.07776     0.11171     0.15005    -0.10104    -0.14605     0.19843
 PZ  C   5  -0.01364    -0.01273     0.01118    -0.01020     0.01057    -0.00949
  
  S  C   6   0.14443     0.00095    -0.07390     0.07173     0.07432    -0.04736
 PX  C   6  -0.15617     0.02242     0.00464    -0.09806     0.21700     0.00190
 PY  C   6  -0.02088    -0.25470    -0.00410     0.02624     0.00485    -0.06771
 PZ  C   6  -0.01562    -0.02281     0.00192    -0.00620     0.02790    -0.01575
  
  S  C   7  -0.10313    -0.03233    -0.03300     0.02416     0.07695    -0.02011
 PX  C   7   0.15811    -0.03346    -0.16549     0.13468    -0.18526     0.02538
 PY  C   7   0.11184    -0.02652     0.27475     0.01842    -0.02372    -0.16799
 PZ  C   7   0.00388     0.00220    -0.00456     0.01269    -0.00518    -0.03691
  
  S  C   8   0.08498    -0.04817     0.04634    -0.05368     0.05197     0.04766
 PX  C   8  -0.18135    -0.06665    -0.14156    -0.04390    -0.17585     0.02555
 PY  C   8  -0.06449     0.03686     0.32668    -0.10359    -0.08158    -0.17462
 PZ  C   8  -0.01698     0.00078    -0.00220     0.00305    -0.01292    -0.03203
  
  S  C   9  -0.12831     0.11917    -0.18905    -0.05328    -0.07588     0.06994
 PX  C   9   0.05334     0.12850     0.04322     0.03456     0.09800    -0.02343
 PY  C   9  -0.09802    -0.19775    -0.08255     0.04092    -0.13653    -0.00575
 PZ  C   9   0.00111    -0.00095     0.01162     0.02354    -0.00633    -0.04036
  
  S  C  10   0.15927     0.11686     0.17280     0.03430    -0.03901    -0.07558
 PX  C  10   0.03302    -0.13176     0.05161    -0.01334    -0.07957     0.04662
 PY  C  10  -0.06679     0.20127    -0.07171    -0.08310     0.12736     0.09056
 PZ  C  10   0.00065    -0.00333     0.01412     0.01645    -0.00957    -0.04693
  
  S  C  11  -0.10647    -0.04584    -0.00332    -0.04248     0.07741     0.01372
 PX  C  11  -0.18072     0.06512    -0.15204    -0.02878     0.13890     0.00174
 PY  C  11  -0.07573     0.03344     0.13907     0.15658     0.15255    -0.16864
 PZ  C  11  -0.01854     0.00411     0.00426     0.02296    -0.00196    -0.05072
  
  S  H  12  -0.06349    -0.02963    -0.18017    -0.15969    -0.02108     0.14537
  
  S  C  13   0.09893    -0.05534    -0.00624     0.06523     0.09275     0.00543
 PX  C  13   0.14532    -0.02573    -0.05433    -0.17506     0.08588     0.16825
 PY  C  13   0.12700     0.05191     0.19769     0.10306     0.11974    -0.10294
 PZ  C  13   0.01000    -0.00359     0.00846     0.01655    -0.01541    -0.00531
  
  S  H  14  -0.06742    -0.01554    -0.29965     0.05377    -0.01573     0.12938
  
  S  H  15  -0.20679    -0.03119     0.06537    -0.07289    -0.20288    -0.08011
  
  S  H  16   0.15242     0.01647    -0.19624     0.16983     0.00896    -0.22990
  
  S  H  17  -0.12403    -0.00639     0.19389    -0.14632    -0.09077     0.23234
  
  S  H  18   0.19634    -0.00587    -0.04130     0.11810    -0.15417    -0.02602
  
  S  H  19   0.05493     0.02045     0.33770    -0.08591     0.03119    -0.12831
  
  S  H  20   0.07705     0.02072     0.18545     0.19110     0.10416    -0.14971
  
  S  C  21   0.16836    -0.00985     0.01919    -0.06127    -0.00966     0.06207
 PX  C  21  -0.04550    -0.22743    -0.05287    -0.20018     0.11976    -0.09431
 PY  C  21  -0.11887    -0.10109     0.07767     0.26507     0.12008     0.21122
 PZ  C  21   0.02135     0.01881    -0.00277    -0.01805    -0.05486    -0.04001
  
  S  C  22  -0.16589     0.03350     0.00931     0.12686     0.05300     0.02847
 PX  C  22  -0.14856    -0.00306    -0.03751     0.01672    -0.21088    -0.22064
 PY  C  22   0.01353     0.25873    -0.02758    -0.04482    -0.04484    -0.05241
 PZ  C  22   0.00629    -0.01824     0.00605     0.00888    -0.00545     0.00636
  
  S  C  23   0.16186    -0.02844    -0.01059    -0.12331     0.05031    -0.01522
 PX  C  23   0.08484     0.21151     0.03694     0.02318    -0.18774     0.18295
 PY  C  23   0.14720    -0.17806     0.02075    -0.05247    -0.17587     0.00841
 PZ  C  23  -0.02171    -0.02579     0.00506     0.03858    -0.00617    -0.00572
  
  S  C  24  -0.14575     0.02345    -0.01719     0.05220     0.00597    -0.03731
 PX  C  24   0.08964    -0.25114    -0.02912    -0.09211     0.18636    -0.15630
 PY  C  24  -0.01074    -0.10651     0.10104     0.33281    -0.00504     0.22302
 PZ  C  24  -0.03556     0.01951     0.02189     0.09373    -0.06528     0.05221
  
  S  H  25   0.14434    -0.02833    -0.07576    -0.31804    -0.04321    -0.17280
  
  S  H  26  -0.20155     0.01596    -0.02765     0.07751    -0.15637    -0.18267
  
  S  H  27   0.21345    -0.02817     0.02585    -0.09101    -0.19563     0.08782
  
  S  H  28  -0.12104     0.04396     0.08443     0.32645    -0.08290     0.22069
  
  S  C  29  -0.05436     0.00856     0.07555     0.19985    -0.06660    -0.04459
 PX  C  29   0.16139     0.22033     0.01736     0.05596    -0.09961     0.13387
 PY  C  29   0.10931    -0.16611     0.00005    -0.02044    -0.24306     0.06212
 PZ  C  29   0.00592     0.00375     0.00321     0.01070    -0.05823    -0.03492
  
  S  C  30   0.04037    -0.04377    -0.07650    -0.20644    -0.11826    -0.01372
 PX  C  30  -0.16463     0.02953     0.00812     0.03182    -0.16858    -0.16968
 PY  C  30  -0.05346     0.27579    -0.05133    -0.14166     0.06370    -0.05385
 PZ  C  30  -0.02048     0.00634     0.01292     0.04671    -0.06713    -0.00976




    ROOT NO.   25          26          27          28          29          30

           -14.98786   -14.84590   -14.61321   -14.39316   -13.87668   -13.45110
  
  
  S  C   1   0.00084    -0.00023     0.00797     0.04046     0.05026    -0.01512
 PX  C   1   0.11087    -0.21085     0.10420    -0.17103     0.06995     0.04834
 PY  C   1   0.22370     0.12560     0.02907    -0.00334     0.15830    -0.02286
 PZ  C   1   0.01634     0.07726     0.11620     0.02753     0.04084     0.23162
  
  S  C   2   0.11018     0.00044     0.01253    -0.03598    -0.02238     0.00220
 PX  C   2  -0.05825     0.19973    -0.11385     0.14225    -0.10347    -0.06808
 PY  C   2   0.16465    -0.09795     0.01877     0.08083    -0.10637    -0.02222
 PZ  C   2  -0.01763     0.09339     0.13384     0.04741    -0.00027     0.24189
  
  S  C   3  -0.03374    -0.01665     0.00911    -0.02440     0.01311     0.00823
 PX  C   3  -0.12026     0.12621     0.00079    -0.08315     0.27026    -0.04532
 PY  C   3  -0.11135    -0.10657     0.03466    -0.11118     0.02035     0.07295
 PZ  C   3  -0.03919     0.11163     0.23439     0.04876    -0.02339     0.29276
  
  S  C   4  -0.01277    -0.06390     0.00680    -0.02414     0.01182     0.01611
 PX  C   4   0.00632    -0.18531     0.10606     0.02160     0.11631     0.03602
 PY  C   4   0.08667     0.04691     0.03233     0.05352     0.18920    -0.06491
 PZ  C   4  -0.02746     0.11273     0.22336     0.05969    -0.04642     0.29178
  
  S  C   5  -0.03024     0.07219    -0.03367     0.06762    -0.00492    -0.02411
 PX  C   5   0.01322     0.14863    -0.07016    -0.04385    -0.10187     0.00616
 PY  C   5   0.36108     0.00697     0.05271     0.03103    -0.02858     0.05249
 PZ  C   5  -0.02212     0.06334     0.14296     0.05108    -0.00680     0.25525
  
  S  C   6  -0.03021     0.01679     0.01826    -0.03211     0.04779     0.02184
 PX  C   6  -0.16711     0.15710    -0.03910     0.14014     0.16646    -0.07983
 PY  C   6  -0.27357    -0.15996    -0.02090    -0.04532    -0.04228    -0.04028
 PZ  C   6  -0.04537     0.05230     0.11117     0.04243     0.01380     0.23564
  
  S  C   7   0.01964    -0.03854     0.01857    -0.05372    -0.02043     0.01344
 PX  C   7   0.15156    -0.13409    -0.02555     0.04813    -0.26959     0.01782
 PY  C   7   0.12028     0.22663    -0.03988    -0.19120    -0.04696    -0.02831
 PZ  C   7  -0.01279     0.07034     0.23964     0.04533    -0.06341     0.16138
  
  S  C   8  -0.06806    -0.01780    -0.01763     0.03419    -0.02340    -0.02126
 PX  C   8   0.02648     0.10161    -0.08213     0.26296    -0.13201    -0.02290
 PY  C   8  -0.13025     0.03372    -0.05179    -0.19896    -0.18222     0.04462
 PZ  C   8  -0.00957     0.09022     0.22376     0.05262    -0.05665     0.15384
  
  S  C   9   0.00726     0.02489     0.00886    -0.00340    -0.02180     0.00752
 PX  C   9  -0.02258    -0.11352     0.04527    -0.31032     0.13036     0.02795
 PY  C   9   0.00798    -0.04174     0.05393    -0.15749     0.10931     0.03557
 PZ  C   9  -0.00919     0.07806     0.32655     0.00464    -0.05516     0.03152
  
  S  C  10   0.00222    -0.01945    -0.03374     0.02933     0.01149    -0.00251
 PX  C  10  -0.17516    -0.13634     0.04268     0.19186     0.23466     0.02639
 PY  C  10  -0.11855    -0.07639     0.00674     0.07662     0.07737     0.00077
 PZ  C  10  -0.01666     0.06934     0.32979     0.04957    -0.06809     0.02666
  
  S  C  11  -0.03078     0.04824     0.00463     0.05049     0.01747    -0.01235
 PX  C  11   0.15620     0.13211    -0.06329    -0.18710    -0.22889    -0.01562
 PY  C  11   0.02899    -0.25909    -0.01454     0.21526    -0.15105     0.03358
 PZ  C  11   0.01540     0.03852     0.25405     0.02814    -0.08057    -0.12861
  
  S  H  12   0.02306     0.27054    -0.01867    -0.23057     0.03308    -0.03622
  
  S  C  13   0.06586     0.00326     0.01473    -0.05298     0.02560    -0.00966
 PX  C  13  -0.09518     0.08868    -0.05768    -0.05645    -0.25721     0.00715
 PY  C  13   0.07275     0.02295    -0.07404     0.35097    -0.01531    -0.05581
 PZ  C  13  -0.01476     0.06716     0.23976     0.01671    -0.05401    -0.12002
  
  S  H  14  -0.01972    -0.23803     0.02716     0.14026    -0.09099     0.03574
  
  S  H  15  -0.22619    -0.00500    -0.08009     0.10390    -0.14038    -0.03736
  
  S  H  16  -0.09791     0.16308    -0.05400    -0.00891     0.02306    -0.00238
  
  S  H  17   0.26299    -0.02097     0.06015     0.07401     0.01454     0.03773
  
  S  H  18   0.14190    -0.13220     0.02919    -0.14671    -0.13742     0.05770
  
  S  H  19  -0.13724    -0.01688    -0.01391    -0.23127    -0.10999     0.03918
  
  S  H  20   0.11771    -0.02541    -0.02542     0.26823     0.11433    -0.05173
  
  S  C  21  -0.09224    -0.01129     0.01307     0.02889     0.00728     0.00631
 PX  C  21   0.03733     0.04502     0.00989     0.11160    -0.14797    -0.07635
 PY  C  21  -0.03908     0.21447    -0.07177     0.04563    -0.08143     0.00687
 PZ  C  21  -0.00488    -0.00844     0.18969    -0.00442     0.02365    -0.26690
  
  S  C  22   0.01860     0.00084    -0.01380    -0.03661    -0.05695     0.01428
 PX  C  22   0.21874    -0.02518    -0.01841    -0.06629     0.22871     0.02631
 PY  C  22  -0.05760    -0.21971     0.11390    -0.09957    -0.00222    -0.05470
 PZ  C  22  -0.01637     0.02982     0.13541     0.00903    -0.01169    -0.25140
  
  S  C  23  -0.01205    -0.00566     0.01013     0.03649    -0.05436    -0.02354
 PX  C  23  -0.24971    -0.01223     0.04079     0.02870     0.04324    -0.00601
 PY  C  23   0.03635     0.19215    -0.10011     0.10410     0.15778     0.06594
 PZ  C  23   0.01320     0.02975     0.13097    -0.01648    -0.00297    -0.24776
  
  S  C  24   0.02603    -0.06183     0.00843    -0.05096     0.01482     0.02600
 PX  C  24   0.22421     0.05671    -0.00919     0.00050    -0.07228    -0.06974
 PY  C  24  -0.05456     0.11679    -0.03647    -0.06605    -0.08966    -0.01215
 PZ  C  24  -0.05040     0.03828     0.17115    -0.02409     0.00807    -0.25365
  
  S  H  25   0.00183    -0.14541     0.08163     0.02213     0.00351    -0.06109
  
  S  H  26   0.20775    -0.02263    -0.02590    -0.08138     0.19194     0.03667
  
  S  H  27  -0.10789     0.12933    -0.05641     0.11448     0.12734     0.05424
  
  S  H  28  -0.13232     0.03680     0.01351    -0.07443    -0.02524    -0.01593
  
  S  C  29   0.07450    -0.00649    -0.01551     0.04234     0.01228    -0.00385
 PX  C  29  -0.10338    -0.03511     0.00825    -0.11763     0.14921     0.06878
 PY  C  29  -0.00530     0.17118    -0.01011    -0.03716     0.21473    -0.03071
 PZ  C  29  -0.00158     0.04105     0.27176     0.00845    -0.00714    -0.28374
  
  S  C  30  -0.00973     0.07467    -0.01103    -0.00848     0.00051    -0.00511
 PX  C  30   0.06793    -0.06095     0.01398     0.06920     0.25702     0.01688
 PY  C  30  -0.07961    -0.17909     0.03266     0.01171     0.00150     0.06683
 PZ  C  30  -0.01830     0.05285     0.25956     0.00793     0.00407    -0.27572




    ROOT NO.   31          32          33          34          35          36

           -13.12675   -12.91500   -11.96845   -11.93602   -11.56977   -11.46425
  
  
  S  C   1   0.00976    -0.02173     0.02055     0.01190     0.00663     0.01184
 PX  C   1  -0.09966     0.22078    -0.07903    -0.15018     0.11726    -0.05357
 PY  C   1  -0.20395    -0.09328     0.08668     0.16048     0.07775     0.08301
 PZ  C   1  -0.02907    -0.09301    -0.26697     0.08819    -0.07712    -0.08534
  
  S  C   2  -0.01807     0.01229     0.00366    -0.04517    -0.03349    -0.02802
 PX  C   2   0.11147    -0.19168     0.09079     0.09474    -0.13957     0.03406
 PY  C   2   0.21236     0.04621    -0.01776    -0.21270    -0.15043    -0.09776
 PZ  C   2   0.01155    -0.07891    -0.19836     0.04846    -0.05511    -0.05624
  
  S  C   3   0.02279    -0.01576     0.00007     0.00285     0.00961    -0.00775
 PX  C   3  -0.15038     0.06735    -0.00495    -0.14521     0.15299    -0.08457
 PY  C   3  -0.17437     0.00249    -0.01990     0.28930     0.15827     0.15557
 PZ  C   3   0.02740    -0.01330    -0.07780    -0.04248     0.02548    -0.00999
  
  S  C   4  -0.03107     0.03495    -0.00840     0.00980    -0.01212     0.00828
 PX  C   4   0.11327    -0.13965     0.07167     0.20623    -0.16374     0.11332
 PY  C   4   0.11808    -0.01183     0.05047    -0.25528    -0.18606    -0.13515
 PZ  C   4   0.03392    -0.01971    -0.10249    -0.06576     0.00064    -0.03384
  
  S  C   5  -0.00672    -0.02803     0.00647    -0.02366     0.02745    -0.02039
 PX  C   5  -0.13539     0.15056    -0.09234    -0.18443     0.15116    -0.10159
 PY  C   5  -0.18749    -0.03696    -0.00837     0.12969     0.09550     0.04777
 PZ  C   5   0.04101    -0.08023    -0.23809     0.02437    -0.10109    -0.08810
  
  S  C   6  -0.00172    -0.01353    -0.01952     0.01157    -0.03153    -0.00713
 PX  C   6   0.08881    -0.22204     0.12383     0.15512    -0.10410     0.07566
 PY  C   6   0.21623     0.09749     0.00018    -0.16334    -0.08817    -0.04934
 PZ  C   6   0.04624    -0.09299    -0.29190     0.04757    -0.13649    -0.11536
  
  S  C   7  -0.06338     0.02918     0.01737    -0.03025    -0.02147    -0.04557
 PX  C   7   0.09035    -0.06738     0.02075     0.13275    -0.17608     0.05298
 PY  C   7  -0.09871    -0.12764     0.10370    -0.10416    -0.16877    -0.15095
 PZ  C   7   0.05164     0.03412     0.12373    -0.04095     0.04596     0.06785
  
  S  C   8   0.05674    -0.05003     0.01445    -0.02098     0.01200    -0.04992
 PX  C   8  -0.15919    -0.05261    -0.01926    -0.07204     0.23577    -0.10826
 PY  C   8  -0.06021     0.08423    -0.07025     0.14700     0.14437     0.09766
 PZ  C   8   0.02974     0.02658     0.09895    -0.08706     0.03930     0.03451
  
  S  C   9  -0.00103     0.06286    -0.00085    -0.00727     0.01401     0.01186
 PX  C   9   0.10878     0.08858    -0.02310     0.11647    -0.22865     0.12695
 PY  C   9  -0.18635    -0.16001     0.16112    -0.03221    -0.15426    -0.22732
 PZ  C   9   0.05834     0.08252     0.29502    -0.06754     0.02516     0.11527
  
  S  C  10   0.04436    -0.02336    -0.01045    -0.00351    -0.00411    -0.01903
 PX  C  10  -0.09328    -0.10050     0.03903    -0.03960     0.21194    -0.13892
 PY  C  10   0.14833     0.20690    -0.15823     0.07390     0.15645     0.22867
 PZ  C  10   0.05538     0.08575     0.31081    -0.04896     0.07671     0.10595
  
  S  C  11  -0.06240     0.04551     0.01292    -0.00033     0.01527    -0.04289
 PX  C  11   0.04110     0.11782    -0.05551     0.04787    -0.21159     0.10245
 PY  C  11  -0.15279    -0.01013     0.07711     0.06545    -0.08218    -0.16396
 PZ  C  11   0.02594     0.07607     0.16823     0.03360     0.01490     0.01882
  
  S  H  12   0.11617     0.07690    -0.10450    -0.03759    -0.01957     0.19855
  
  S  C  13   0.06116    -0.05845     0.03045     0.00751    -0.02634    -0.05814
 PX  C  13   0.09655    -0.10727     0.00706     0.05157     0.24916    -0.13659
 PY  C  13   0.09000     0.10172    -0.14716    -0.05221     0.13389     0.16415
 PZ  C  13   0.03632     0.05657     0.13315    -0.00784     0.03245     0.04646
  
  S  H  14   0.09148     0.08918    -0.07597     0.15064     0.05697     0.15633
  
  S  H  15   0.22885    -0.03652     0.00589    -0.06137    -0.12078    -0.02758
  
  S  H  16  -0.12908    -0.12409     0.05099     0.21893     0.04759     0.09547
  
  S  H  17  -0.09715    -0.11875     0.03366     0.20634     0.02400     0.09029
  
  S  H  18  -0.09431     0.21842    -0.09688    -0.15365     0.11216    -0.06433
  
  S  H  19   0.03811     0.07097    -0.05228     0.16060     0.04243     0.13421
  
  S  H  20   0.05631     0.10818    -0.12619    -0.06544    -0.01990     0.21188
  
  S  C  21  -0.02725     0.00531     0.01713     0.01925     0.03140    -0.04345
 PX  C  21  -0.22781     0.05733    -0.06860    -0.07682    -0.19495     0.13384
 PY  C  21   0.01663     0.23149     0.03529     0.15532    -0.05125    -0.13730
 PZ  C  21   0.01445    -0.02738    -0.18709     0.09287     0.02976    -0.12945
  
  S  C  22   0.01278    -0.02842     0.02054    -0.00936     0.00141     0.00881
 PX  C  22   0.24448    -0.01307     0.00144     0.05437     0.11671    -0.07093
 PY  C  22  -0.03221    -0.28931    -0.06460    -0.14758     0.07140     0.10698
 PZ  C  22  -0.01506     0.01133    -0.24629     0.12465    -0.01546    -0.17450
  
  S  C  23  -0.01683    -0.01435    -0.01388    -0.00604     0.01705    -0.00029
 PX  C  23  -0.23277     0.07157    -0.02533    -0.02902    -0.15147     0.05159
 PY  C  23   0.05553     0.30184     0.05271     0.14950    -0.05088    -0.11172
 PZ  C  23   0.01986    -0.01943    -0.25353     0.10621    -0.00742    -0.15158
  
  S  C  24   0.00323    -0.02688     0.03379     0.00779    -0.01944    -0.02051
 PX  C  24   0.21916    -0.08458    -0.04532     0.02489     0.16305    -0.05134
 PY  C  24   0.02195    -0.19394    -0.04889    -0.14783     0.10099     0.13843
 PZ  C  24  -0.04161    -0.00933    -0.20045     0.05627    -0.05664    -0.06254
  
  S  H  25  -0.13692    -0.16449    -0.07865    -0.16551    -0.04284     0.17759
  
  S  H  26   0.24774    -0.02672     0.01390     0.04867     0.12356    -0.06502
  
  S  H  27  -0.09500     0.28452     0.03964     0.10091    -0.13014    -0.05412
  
  S  H  28  -0.08907    -0.13321    -0.04796    -0.12723    -0.01583     0.13358
  
  S  C  29   0.02826    -0.00388     0.00324     0.00057    -0.01928    -0.00265
 PX  C  29   0.21099    -0.03881     0.07106     0.09592     0.21250    -0.16415
 PY  C  29   0.04599    -0.05672    -0.11781    -0.16679     0.05968     0.24360
 PZ  C  29   0.02809     0.04290    -0.02652     0.08400     0.02149    -0.05838
  
  S  C  30  -0.03232     0.03458    -0.01218    -0.00506     0.00405     0.00766
 PX  C  30  -0.11976     0.13930    -0.04000    -0.06587    -0.23953     0.17874
 PY  C  30  -0.04271     0.14427     0.12672     0.18451    -0.06138    -0.23568
 PZ  C  30  -0.00734     0.05795    -0.05019     0.05750    -0.03650    -0.01754




    ROOT NO.   37          38          39          40          41          42

           -10.56544    -9.87322    -9.65565    -8.30450    -8.09492    -6.71910
  
  
  S  C   1   0.00218    -0.01153     0.01025    -0.00267    -0.01219     0.00164
 PX  C   1   0.00031     0.01293    -0.00327    -0.00632    -0.00217     0.00452
 PY  C   1   0.02934    -0.03471     0.06226    -0.03546    -0.04502     0.02696
 PZ  C   1  -0.10262     0.19821    -0.31632     0.21611     0.27753    -0.20265
  
  S  C   2  -0.00032    -0.00260     0.00515    -0.00366    -0.00297     0.00405
 PX  C   2   0.01102    -0.01383     0.02858    -0.01895    -0.00730     0.01528
 PY  C   2  -0.02017    -0.00415    -0.01593     0.01241     0.00303    -0.00458
 PZ  C   2  -0.21530    -0.08497    -0.33995     0.36299     0.04095    -0.23213
  
  S  C   3   0.00112     0.01133    -0.00527     0.00433     0.00747    -0.01264
 PX  C   3   0.01282     0.04351    -0.00314    -0.01334     0.02309    -0.00956
 PY  C   3   0.02500     0.00556     0.01605    -0.00696    -0.00104    -0.00028
 PZ  C   3  -0.23068    -0.36632    -0.08111     0.08076    -0.31303     0.14661
  
  S  C   4  -0.00195     0.00464    -0.00137    -0.00071     0.00534     0.00098
 PX  C   4   0.00885    -0.04026     0.03464     0.01047    -0.02939    -0.01253
 PY  C   4  -0.01533    -0.01010     0.00475     0.00505    -0.00701    -0.00845
 PZ  C   4   0.20482    -0.12869     0.34161    -0.00688    -0.34524    -0.14676
  
  S  C   5  -0.00116     0.00373    -0.00538    -0.00010     0.00256    -0.00136
 PX  C   5   0.01146     0.04777    -0.00529    -0.02806     0.01245     0.01750
 PY  C   5   0.00372     0.00515    -0.00290    -0.00602     0.00471     0.00688
 PZ  C   5   0.19049     0.26109     0.22452    -0.34095    -0.05787     0.22620
  
  S  C   6   0.01482     0.04064     0.00725    -0.02914     0.02171     0.01956
 PX  C   6   0.00111    -0.03936     0.01822     0.01372    -0.01621    -0.01242
 PY  C   6  -0.02136    -0.03305    -0.01174     0.03282    -0.01362    -0.02298
 PZ  C   6   0.08469     0.38018    -0.02275    -0.23515     0.21311     0.18095
  
  S  C   7  -0.01477    -0.01453    -0.00486    -0.01018     0.00178     0.02258
 PX  C   7   0.01431    -0.00837     0.01374     0.01626    -0.00080    -0.01676
 PY  C   7  -0.01535    -0.01318    -0.00045    -0.00070     0.00140     0.00637
 PZ  C   7  -0.31997    -0.28964    -0.08957    -0.21983    -0.02235     0.37605
  
  S  C   8  -0.02093    -0.00025    -0.02248    -0.01290    -0.00680     0.02298
 PX  C   8  -0.01118     0.02656    -0.03952    -0.01919     0.01388     0.02353
 PY  C   8   0.01095     0.01628    -0.00409    -0.00513     0.00939     0.00411
 PZ  C   8   0.33242    -0.08716     0.30436     0.20810     0.00353    -0.37573
  
  S  C   9   0.00682     0.00977     0.00081     0.00925     0.02334    -0.00136
 PX  C   9  -0.03302    -0.01442     0.01875    -0.00996    -0.03894     0.00457
 PY  C   9  -0.01371    -0.01211     0.00127     0.00191    -0.02160     0.00646
 PZ  C   9   0.27673     0.01465     0.02408     0.18106     0.37582     0.00207
  
  S  C  10   0.01587    -0.00139    -0.00577     0.01305    -0.01977    -0.00354
 PX  C  10   0.02592     0.01008    -0.01605     0.00435    -0.01247    -0.00049
 PY  C  10   0.00550     0.01505     0.00352    -0.00420    -0.00037    -0.00317
 PZ  C  10  -0.22928     0.02437    -0.01888    -0.28170     0.32467    -0.01255
  
  S  C  11  -0.00533     0.00500     0.00113    -0.00553     0.00431    -0.00384
 PX  C  11   0.01001    -0.03489     0.01226     0.02565     0.00086     0.02972
 PY  C  11   0.03886    -0.03777    -0.00800     0.01915     0.00168     0.02903
 PZ  C  11  -0.31223     0.29474     0.04371    -0.22633    -0.05810    -0.37479
  
  S  H  12  -0.01881     0.00682     0.01392     0.00280     0.00593     0.00299
  
  S  C  13  -0.00290    -0.00966    -0.00124    -0.00955    -0.01442    -0.00897
 PX  C  13  -0.00217     0.00672    -0.00369    -0.02140    -0.00135    -0.02928
 PY  C  13  -0.00187     0.00743    -0.00189    -0.00923     0.01333    -0.01035
 PZ  C  13   0.34685     0.09366    -0.25670     0.25081     0.02536     0.37696
  
  S  H  14   0.01673     0.00161     0.00944     0.00560    -0.00096    -0.00974
  
  S  H  15  -0.01620    -0.00504    -0.01838     0.01605     0.00786    -0.00779
  
  S  H  16   0.01462    -0.00976     0.01738    -0.00698    -0.00692     0.00462
  
  S  H  17   0.00356    -0.01409     0.00663    -0.00080    -0.00689     0.00447
  
  S  H  18  -0.00673     0.00742    -0.01533     0.00842    -0.00360    -0.00626
  
  S  H  19   0.01822     0.00059     0.01571     0.00638    -0.00034    -0.01349
  
  S  H  20  -0.00426    -0.00086     0.00483     0.00018     0.01018     0.00332
  
  S  C  21  -0.00002     0.00110     0.00289     0.00294     0.00405     0.00512
 PX  C  21  -0.02497     0.00020     0.02697     0.02084    -0.00388     0.00882
 PY  C  21  -0.03244     0.01061     0.05043     0.04630    -0.00276     0.02765
 PZ  C  21  -0.22077     0.05597     0.34969     0.31236     0.04523     0.21160
  
  S  C  22   0.00011     0.02375    -0.01601    -0.00208    -0.02673    -0.00866
 PX  C  22   0.00928    -0.02046     0.00973     0.00308     0.02364     0.01034
 PY  C  22  -0.00855    -0.00727     0.01571     0.00486     0.02580     0.00894
 PZ  C  22  -0.11417    -0.20383     0.32694     0.16760     0.29789     0.17518
  
  S  C  23   0.01175    -0.00402    -0.01367    -0.00713    -0.00417    -0.00201
 PX  C  23  -0.01535    -0.04187     0.02716    -0.01785     0.03726    -0.01706
 PY  C  23   0.01043    -0.01349    -0.00611    -0.00913    -0.00360    -0.00724
 PZ  C  23   0.10965    -0.37126    -0.02057    -0.26601     0.22962    -0.19873
  
  S  C  24  -0.01027     0.01044     0.01452     0.01811     0.00058     0.01239
 PX  C  24   0.05319    -0.02311    -0.06269    -0.04612    -0.02043    -0.02561
 PY  C  24  -0.04954     0.05131     0.04292     0.04276     0.01003     0.02419
 PZ  C  24   0.21732    -0.25740    -0.25859    -0.32249    -0.04687    -0.21171
  
  S  H  25  -0.00163    -0.00702    -0.00350    -0.01076     0.00992    -0.00641
  
  S  H  26   0.01287    -0.01103    -0.00212    -0.00243     0.01471     0.00522
  
  S  H  27  -0.00377    -0.01584     0.01018    -0.00294     0.00564    -0.00399
  
  S  H  28  -0.03077     0.00929     0.02462     0.00410     0.01298    -0.00334
  
  S  C  29  -0.01910     0.01918     0.01440     0.01597    -0.01650    -0.00072
 PX  C  29   0.02176     0.00250    -0.02032    -0.01311     0.00185    -0.00357
 PY  C  29  -0.01868     0.00857     0.01041    -0.00556     0.02370    -0.00050
 PZ  C  29  -0.21810     0.34215     0.06233     0.08508    -0.35202    -0.12896
  
  S  C  30   0.01279    -0.00653    -0.01627    -0.01139     0.00102    -0.00355
 PX  C  30  -0.03290    -0.02008     0.04010     0.00013     0.02866    -0.00736
 PY  C  30   0.02449    -0.01692    -0.01455    -0.00520    -0.01416    -0.00296
 PZ  C  30   0.23257     0.10286    -0.33795     0.03353    -0.34533     0.15864




    ROOT NO.   43          44          45          46          47          48

            -1.02388     0.22188     0.30745     1.29577     1.32165     1.83248
  
  
  S  C   1  -0.01503     0.00289     0.01906    -0.00939    -0.02302     0.01408
 PX  C   1  -0.00525    -0.01235     0.00621    -0.01835     0.00997    -0.00209
 PY  C   1  -0.03048    -0.01549     0.03751    -0.03696    -0.00735     0.01337
 PZ  C   1   0.20732     0.21118    -0.26614     0.38345    -0.07815    -0.05924
  
  S  C   2   0.00579     0.00040    -0.00877     0.00834     0.01229    -0.00385
 PX  C   2   0.01359    -0.00290    -0.01653     0.01409     0.00974    -0.00572
 PY  C   2   0.00158     0.00072     0.00060    -0.00224     0.00173     0.00434
 PZ  C   2  -0.24245     0.04378     0.34274    -0.30726    -0.19698     0.18953
  
  S  C   3  -0.00272     0.01031    -0.00332     0.01407    -0.00989    -0.01368
 PX  C   3   0.00167     0.01064     0.00137    -0.00536    -0.01527     0.00949
 PY  C   3   0.00011     0.00530    -0.00027     0.01025    -0.00446    -0.00401
 PZ  C   3  -0.14926    -0.31777     0.00845    -0.05192     0.37364    -0.23941
  
  S  C   4   0.01486    -0.01899    -0.01143    -0.03816     0.01798     0.01982
 PX  C   4  -0.00329     0.01272    -0.00347     0.00889    -0.00765     0.00397
 PY  C   4   0.00424     0.00514    -0.00633    -0.00583    -0.00376     0.00672
 PZ  C   4  -0.14941     0.33169    -0.10850     0.38811     0.01289    -0.19979
  
  S  C   5  -0.01134     0.02178     0.01402     0.02890    -0.03616     0.00385
 PX  C   5  -0.01011     0.00018     0.01366     0.00219    -0.00553    -0.00383
 PY  C   5   0.00957    -0.01271    -0.01176    -0.00409     0.02321    -0.01208
 PZ  C   5  -0.23585     0.04712     0.32644    -0.11805    -0.33341     0.21684
  
  S  C   6   0.03457    -0.03901    -0.03806    -0.02294     0.07051    -0.02856
 PX  C   6  -0.00508     0.01550     0.00246     0.01156    -0.01658     0.00639
 PY  C   6  -0.01440     0.01771     0.01378     0.00108    -0.02521     0.01445
 PZ  C   6   0.19409    -0.26591    -0.16022    -0.15985     0.34491    -0.12528
  
  S  C   7   0.01927     0.00367    -0.00127    -0.00619    -0.00852     0.02448
 PX  C   7  -0.01253     0.01358     0.00920     0.00620     0.01034    -0.01566
 PY  C   7   0.00236     0.00894     0.00534     0.00086     0.00254    -0.00269
 PZ  C   7   0.37720    -0.03615    -0.21106     0.01886    -0.27849     0.32606
  
  S  C   8  -0.03303     0.01653     0.01923     0.04829    -0.00738    -0.03548
 PX  C   8  -0.01372     0.00185     0.00656     0.01131     0.00576    -0.00845
 PY  C   8   0.00116    -0.00492     0.00118    -0.00248     0.00564    -0.00449
 PZ  C   8   0.38023    -0.05819    -0.19391    -0.32077    -0.03340     0.30013
  
  S  C   9   0.00442    -0.01829     0.00577    -0.02264     0.00244    -0.00188
 PX  C   9  -0.01599     0.03178    -0.01878     0.01369    -0.00460     0.00788
 PY  C   9  -0.00440     0.00085    -0.01851    -0.00405    -0.00556     0.01072
 PZ  C   9  -0.00720    -0.29956     0.30215     0.02995     0.01533    -0.27604
  
  S  C  10  -0.00403    -0.02579    -0.01612    -0.00020    -0.00801    -0.00283
 PX  C  10   0.00365    -0.02665    -0.01034    -0.00620    -0.01247     0.00076
 PY  C  10   0.00179     0.00101    -0.00601     0.00322    -0.00258     0.01112
 PZ  C  10  -0.00181     0.38981     0.17627     0.02065    -0.03283    -0.25057
  
  S  C  11  -0.00295     0.02084     0.00973    -0.00229     0.03939     0.03687
 PX  C  11   0.02422     0.00091     0.01470     0.00435    -0.00514    -0.00503
 PY  C  11   0.02662     0.01072     0.02316     0.00556    -0.00181    -0.00827
 PZ  C  11  -0.35269    -0.01395    -0.23399    -0.07390     0.29108     0.30752
  
  S  H  12   0.00028    -0.00410    -0.00024     0.00553    -0.01896    -0.02080
  
  S  C  13   0.01010     0.00777     0.01237     0.01567     0.00098    -0.00751
 PX  C  13   0.03126    -0.00300     0.02437    -0.01311    -0.00122    -0.02214
 PY  C  13   0.01028    -0.00475     0.01000    -0.01080     0.00112    -0.00948
 PZ  C  13  -0.36559    -0.05845    -0.23961     0.25337     0.04278     0.35008
  
  S  H  14  -0.00788     0.00230     0.00376     0.00728     0.00717    -0.01626
  
  S  H  15   0.00567    -0.00051    -0.00599     0.00154     0.00987    -0.00469
  
  S  H  16  -0.00644    -0.00183     0.01113    -0.00977    -0.00847     0.00545
  
  S  H  17   0.00028    -0.01147    -0.00224    -0.01389     0.01878    -0.00383
  
  S  H  18  -0.02336     0.02293     0.02744     0.01261    -0.04584     0.01911
  
  S  H  19   0.01624    -0.00467    -0.01014    -0.02421     0.00272     0.02527
  
  S  H  20  -0.00687     0.00128    -0.00312    -0.00253     0.00248     0.00624
  
  S  C  21  -0.00252     0.02376     0.00060    -0.01650     0.03102     0.01884
 PX  C  21   0.01264    -0.01109     0.00965     0.00875    -0.01128    -0.00921
 PY  C  21   0.02392     0.00930     0.03350     0.02207     0.02380     0.02229
 PZ  C  21   0.21227     0.05544     0.33486     0.28275     0.19105     0.22575
  
  S  C  22   0.01668    -0.03280     0.01758     0.04212    -0.03423    -0.00674
 PX  C  22  -0.00943     0.01925    -0.01087    -0.02182     0.01102    -0.00283
 PY  C  22  -0.01754     0.01412    -0.01917    -0.01796     0.00366    -0.00254
 PZ  C  22  -0.18498     0.22438    -0.25972    -0.35925     0.05494    -0.12309
  
  S  C  23   0.00087     0.01219    -0.00715    -0.02960     0.01047    -0.00583
 PX  C  23  -0.03013    -0.03361    -0.03186     0.00885    -0.04413    -0.01851
 PY  C  23   0.00764    -0.01029     0.01121     0.01654    -0.00615     0.00204
 PZ  C  23  -0.19111    -0.31636    -0.18921     0.14970    -0.34412    -0.09015
  
  S  C  24  -0.01129    -0.00951    -0.01874     0.00762    -0.04001    -0.02887
 PX  C  24   0.03241     0.01416     0.04430     0.01135     0.04678     0.03138
 PY  C  24  -0.02307    -0.00347    -0.04069    -0.02390    -0.03392    -0.02341
 PZ  C  24   0.20767     0.06766     0.33207     0.11227     0.33537     0.21453
  
  S  H  25  -0.00554    -0.00847    -0.00090     0.01157    -0.00722    -0.00066
  
  S  H  26  -0.00858     0.02488    -0.00533    -0.02352     0.03182     0.01274
  
  S  H  27   0.00185    -0.00703     0.01272     0.02436     0.00502     0.01370
  
  S  H  28   0.00137     0.00434     0.01490     0.00383     0.03489     0.02956
  
  S  C  29   0.00650    -0.03871    -0.00846     0.01087    -0.06002    -0.04908
 PX  C  29  -0.00323     0.00950    -0.00098    -0.00537     0.00953     0.00654
 PY  C  29  -0.01717     0.00784    -0.01027    -0.00204     0.00379     0.00275
 PZ  C  29   0.14512    -0.35784     0.02484     0.08208    -0.33692    -0.20801
  
  S  C  30  -0.00027     0.01225    -0.00431    -0.02202     0.02483     0.02279
 PX  C  30  -0.01714    -0.01233     0.00250     0.02194     0.01110     0.02039
 PY  C  30   0.00998    -0.00734     0.00815     0.00620    -0.00741    -0.00690
 PZ  C  30   0.14637     0.34352    -0.08884    -0.34987    -0.05709    -0.25950




    ROOT NO.   49          50          51          52          53          54

             2.42075     2.50759     2.89781     3.09861     3.33619     3.43180
  
  
  S  C   1  -0.05923    -0.08777    -0.17100     0.04809    -0.15452     0.19266
 PX  C   1   0.01088    -0.03890    -0.03047    -0.02919    -0.06060    -0.00113
 PY  C   1   0.00790    -0.01794    -0.02067    -0.00312     0.03931     0.02080
 PZ  C   1  -0.27827     0.14494     0.03702     0.24123    -0.05508    -0.05144
  
  S  C   2   0.05963     0.14264     0.20992    -0.00399     0.20149    -0.14199
 PX  C   2  -0.00442     0.03277     0.01429     0.03019     0.00317     0.03602
 PY  C   2   0.02634     0.05810     0.06918     0.00249     0.04446    -0.01518
 PZ  C   2   0.20912    -0.10073    -0.01400    -0.25486     0.05341     0.05095
  
  S  C   3  -0.10366    -0.23605    -0.29708    -0.01048    -0.17125     0.09698
 PX  C   3   0.00894    -0.00608     0.05792    -0.02539    -0.07448    -0.08447
 PY  C   3  -0.02359    -0.04028    -0.04380    -0.00345     0.12382    -0.00831
 PZ  C   3  -0.06674     0.03122    -0.00354     0.30696    -0.06144    -0.07123
  
  S  C   4   0.13268     0.23246     0.30467    -0.01351    -0.19378    -0.09633
 PX  C   4  -0.00005     0.03402    -0.01047     0.02442     0.03657     0.07212
 PY  C   4   0.00055    -0.01183    -0.05945     0.00100    -0.13138     0.07184
 PZ  C   4   0.08462    -0.00646     0.00599    -0.29642     0.03384     0.08087
  
  S  C   5  -0.12284    -0.13908    -0.24553     0.07369     0.16200     0.17505
 PX  C   5  -0.02888    -0.06581    -0.06453    -0.01242     0.06728    -0.01122
 PY  C   5   0.01881    -0.01274    -0.00047    -0.02461     0.02177    -0.01342
 PZ  C   5  -0.21578     0.11530     0.05338     0.24583    -0.05376    -0.08406
  
  S  C   6   0.11296     0.05716     0.15493    -0.10384    -0.04023    -0.16422
 PX  C   6  -0.00188     0.04017     0.05131     0.00988     0.00493    -0.04390
 PY  C   6  -0.00342     0.02312     0.01690     0.01034    -0.09361     0.01184
 PZ  C   6   0.26385    -0.16412    -0.08476    -0.22016     0.05659     0.10235
  
  S  C   7   0.09221     0.21706     0.14771     0.01570     0.23980     0.10557
 PX  C   7  -0.00078    -0.02293    -0.10049     0.01081    -0.00398     0.10265
 PY  C   7   0.02569     0.04431    -0.01702     0.01101     0.03743     0.07651
 PZ  C   7  -0.13890     0.02073    -0.00527    -0.14824     0.03374     0.04582
  
  S  C   8  -0.11336    -0.21393    -0.14707    -0.01903     0.25855    -0.13859
 PX  C   8  -0.00180    -0.02391     0.07777    -0.01638     0.01669    -0.12352
 PY  C   8   0.02079     0.03719     0.06642    -0.00896    -0.02336    -0.04248
 PZ  C   8   0.10357    -0.09615    -0.02812     0.13521     0.00043    -0.06879
  
  S  C   9   0.09555     0.24369    -0.00061     0.02432    -0.20625     0.32362
 PX  C   9   0.01819     0.00355    -0.08345    -0.00120     0.06050     0.03134
 PY  C   9   0.00233    -0.00178    -0.04662    -0.01192    -0.14563    -0.04412
 PZ  C   9  -0.31992     0.13009     0.01448     0.00970     0.05649     0.01416
  
  S  C  10  -0.11295    -0.23721    -0.00193    -0.04017    -0.20332    -0.31195
 PX  C  10  -0.01006     0.01118     0.07838    -0.00856    -0.08287     0.02749
 PY  C  10  -0.00781    -0.01729     0.04461    -0.00345     0.14057    -0.07537
 PZ  C  10   0.32011    -0.12052    -0.01688    -0.01426    -0.06941    -0.05157
  
  S  C  11   0.08222     0.23591    -0.13436     0.04763     0.28068     0.16763
 PX  C  11  -0.01258    -0.01817    -0.06861    -0.01296    -0.01461    -0.10036
 PY  C  11   0.01941     0.04008    -0.06379    -0.00575     0.02434    -0.03157
 PZ  C  11  -0.14001     0.01386     0.01304     0.15248     0.01142    -0.01962
  
  S  H  12  -0.03841    -0.13105     0.08281    -0.02597    -0.12521    -0.11274
  
  S  C  13  -0.08446    -0.23158     0.13412    -0.00182     0.26405    -0.16158
 PX  C  13  -0.01131    -0.02382     0.08858     0.01743     0.00607     0.08315
 PY  C  13   0.00973     0.03365     0.02249     0.01005    -0.02313     0.06279
 PZ  C  13   0.13278    -0.07263     0.01670    -0.14089    -0.02366     0.01708
  
  S  H  14  -0.04793    -0.11314    -0.08632    -0.00517    -0.09074    -0.06406
  
  S  H  15   0.04065     0.05984     0.11621    -0.03330     0.11245    -0.13238
  
  S  H  16  -0.02694    -0.07094    -0.11126     0.00037    -0.08165     0.08246
  
  S  H  17   0.06840     0.08140     0.15692    -0.04547    -0.07119    -0.13002
  
  S  H  18  -0.07055    -0.03087    -0.08352     0.06486     0.04147     0.08136
  
  S  H  19   0.06309     0.11785     0.09355     0.01837    -0.12108     0.09490
  
  S  H  20   0.04620     0.12407    -0.08191     0.00521    -0.11732     0.11076
  
  S  C  21   0.02419     0.17203    -0.21140    -0.02991     0.19098    -0.15589
 PX  C  21  -0.02140    -0.05909     0.04579    -0.02844    -0.06098    -0.05056
 PY  C  21   0.00810    -0.00295    -0.01428    -0.00423    -0.01181    -0.05451
 PZ  C  21   0.24439    -0.08096    -0.04914     0.25560    -0.02101    -0.07219
  
  S  C  22   0.04196    -0.13108     0.16522     0.12017    -0.09287     0.25303
 PX  C  22  -0.01142     0.03222    -0.02957    -0.01701    -0.00710    -0.01765
 PY  C  22   0.00069     0.00930     0.00524     0.02774     0.08965     0.05876
 PZ  C  22  -0.31333     0.05797     0.09420    -0.21869    -0.00861     0.11204
  
  S  C  23  -0.01940     0.13807    -0.18646    -0.13144    -0.12512    -0.28366
 PX  C  23   0.02178    -0.02505     0.00712     0.01801     0.05212    -0.03739
 PY  C  23   0.01782    -0.01769     0.01667     0.02289    -0.05632     0.02941
 PZ  C  23   0.30740    -0.04720    -0.08788     0.21830     0.00856    -0.08221
  
  S  C  24   0.00112    -0.18675     0.22210     0.11117     0.18158     0.17609
 PX  C  24  -0.01082     0.02382     0.00665     0.00444    -0.01561     0.09632
 PY  C  24   0.04506     0.06233    -0.07047     0.03619    -0.03539     0.00403
 PZ  C  24  -0.22890     0.02029     0.08665    -0.23181    -0.01632     0.08038
  
  S  H  25  -0.01167    -0.09756     0.12900     0.02676    -0.07946     0.10772
  
  S  H  26  -0.02963     0.08351    -0.10174    -0.07745     0.07844    -0.15642
  
  S  H  27   0.00112    -0.09080     0.12376     0.07270     0.10488     0.18380
  
  S  H  28  -0.01477     0.10216    -0.12600    -0.08252    -0.07838    -0.11193
  
  S  C  29  -0.07041    -0.25672     0.26743    -0.03077    -0.21277     0.02301
 PX  C  29   0.01622     0.03516     0.00228     0.01780    -0.04408     0.08127
 PY  C  29   0.00507    -0.02317     0.06198     0.03038     0.13621     0.05780
 PZ  C  29  -0.06710     0.07689    -0.00704    -0.30272     0.02628     0.05612
  
  S  C  30   0.06458     0.26327    -0.27304    -0.02014    -0.16857    -0.03187
 PX  C  30  -0.01735    -0.00499    -0.04945    -0.02512     0.10875    -0.09250
 PY  C  30  -0.02009    -0.03572     0.02791    -0.03903    -0.11088    -0.04288
 PZ  C  30   0.06781    -0.01600    -0.03247     0.29265     0.02812    -0.05852




    ROOT NO.   55          56          57          58          59          60

             3.57350     3.75778     3.83083     3.92548     4.26614     4.30288
  
  
  S  C   1   0.09984    -0.24464     0.34223    -0.14346    -0.02730     0.14001
 PX  C   1  -0.04407     0.03070     0.02290     0.12676    -0.03264     0.10632
 PY  C   1   0.01875    -0.01886    -0.03127    -0.07121     0.02579    -0.05525
 PZ  C   1   0.10418     0.04439     0.01433     0.03160    -0.00755     0.02934
  
  S  C   2   0.00439     0.08407    -0.21871    -0.16695     0.07347    -0.28799
 PX  C   2   0.05548    -0.09166     0.10472    -0.12508     0.00612     0.02036
 PY  C   2   0.02100    -0.03929     0.04457    -0.08652     0.00233     0.04089
 PZ  C   2  -0.13985    -0.06088    -0.00182    -0.03581     0.00642    -0.02438
  
  S  C   3  -0.07006     0.09558    -0.05456     0.34086    -0.06778    -0.00185
 PX  C   3  -0.04469     0.03401     0.04055     0.00433    -0.00539    -0.17415
 PY  C   3  -0.00398     0.06414    -0.18176    -0.02481     0.03687    -0.06937
 PZ  C   3   0.25118     0.10573    -0.00664     0.03430    -0.00500     0.00708
  
  S  C   4  -0.00084    -0.10474     0.30147    -0.08029    -0.02217    -0.03485
 PX  C   4   0.05803    -0.07075    -0.03908    -0.13380     0.03617    -0.17442
 PY  C   4  -0.01384    -0.00294     0.01269     0.15186    -0.04492    -0.11512
 PZ  C   4  -0.23508    -0.11498     0.02697    -0.03728     0.00381    -0.01667
  
  S  C   5   0.12094    -0.07790    -0.17556    -0.22013     0.07369    -0.29130
 PX  C   5  -0.03411     0.08257    -0.11918     0.11001    -0.01950     0.06316
 PY  C   5  -0.02567     0.03909    -0.07056     0.03681     0.00424    -0.06269
 PZ  C   5   0.11786     0.08417    -0.00955     0.06120    -0.01031     0.01951
  
  S  C   6  -0.15780     0.19402    -0.10839     0.30730    -0.05526     0.07678
 PX  C   6  -0.00810     0.03568    -0.02530     0.01844     0.00457     0.01788
 PY  C   6   0.00493    -0.05461     0.15747     0.01888    -0.03164     0.13625
 PZ  C   6  -0.06286    -0.10478     0.03465    -0.11011     0.01804    -0.02125
  
  S  C   7   0.09528    -0.12418    -0.09450    -0.16972     0.05928     0.32345
 PX  C   7   0.01439     0.00576    -0.04831     0.14467    -0.03999     0.06854
 PY  C   7   0.02653    -0.01866    -0.03052     0.07544    -0.03656    -0.01605
 PZ  C   7  -0.25187    -0.08959    -0.00246     0.00527    -0.00505    -0.02479
  
  S  C   8  -0.04070     0.13914    -0.10075    -0.10090     0.05470     0.35632
 PX  C   8  -0.01537    -0.00238     0.15487    -0.06845    -0.02605    -0.02532
 PY  C   8  -0.01106    -0.01452     0.07278    -0.03317    -0.00116     0.07578
 PZ  C   8   0.22448     0.11470    -0.01520     0.00247     0.00714     0.05301
  
  S  C   9   0.02748    -0.10026    -0.19908     0.19077     0.07180    -0.05797
 PX  C   9   0.01304     0.06016    -0.09868    -0.03287     0.05740     0.16900
 PY  C   9  -0.04448     0.06952    -0.00608    -0.06552     0.14511    -0.02633
 PZ  C   9  -0.33135    -0.12859    -0.00085    -0.02580    -0.00289     0.00657
  
  S  C  10  -0.10957     0.10980     0.17496    -0.15492     0.11004    -0.14076
 PX  C  10   0.00317    -0.06647    -0.09785    -0.04522     0.13222     0.04535
 PY  C  10   0.01534    -0.00207     0.03110    -0.11486    -0.02248     0.12451
 PZ  C  10   0.33452     0.14828     0.02774    -0.00425     0.01442    -0.00583
  
  S  C  11   0.00742     0.06633     0.09998     0.12678    -0.32262    -0.03460
 PX  C  11  -0.04532     0.09018     0.13635    -0.03058    -0.00267    -0.06574
 PY  C  11  -0.01061     0.05947     0.06388    -0.01531     0.08458    -0.01010
 PZ  C  11  -0.24534    -0.11562    -0.03045    -0.01676     0.01597     0.00502
  
  S  H  12   0.01071    -0.05534    -0.06288    -0.08143     0.29400     0.06231
  
  S  C  13   0.06957    -0.11296     0.16051     0.05502    -0.31908    -0.09101
 PX  C  13   0.03200    -0.10691    -0.04981     0.11978     0.05999     0.00234
 PY  C  13   0.00829    -0.04655    -0.01974     0.07149    -0.06330    -0.02934
 PZ  C  13   0.23229     0.09012     0.01322     0.01925     0.00394    -0.00135
  
  S  H  14  -0.04921     0.08422     0.04977     0.10655    -0.06943    -0.27309
  
  S  H  15  -0.06852     0.17020    -0.23884     0.09964     0.02088    -0.06480
  
  S  H  16   0.00089    -0.05022     0.11679     0.08812    -0.04264     0.23129
  
  S  H  17  -0.08116     0.06574     0.10582     0.14601    -0.05110     0.27294
  
  S  H  18   0.09192    -0.09818     0.04647    -0.17947     0.03719    -0.00861
  
  S  H  19   0.04647    -0.10670     0.06530     0.05849    -0.06378    -0.32420
  
  S  H  20  -0.03887     0.07850    -0.10872    -0.02848     0.29691     0.10533
  
  S  C  21   0.02842    -0.05483     0.20649     0.18101     0.33296    -0.06570
 PX  C  21   0.05242    -0.12661    -0.07349     0.05212     0.06291    -0.00094
 PY  C  21   0.02378    -0.08400    -0.04692     0.01815    -0.05782     0.00722
 PZ  C  21  -0.14071    -0.09501    -0.03918    -0.00921     0.00203     0.00339
  
  S  C  22  -0.14716     0.28610    -0.00156    -0.20156    -0.11122     0.03015
 PX  C  22   0.00083     0.00668    -0.00445    -0.01647     0.01782     0.00762
 PY  C  22  -0.03141     0.08387     0.12652     0.05062     0.14423    -0.03412
 PZ  C  22   0.08230     0.11947     0.02266    -0.02940    -0.01889     0.00455
  
  S  C  23   0.11975    -0.27735    -0.20830    -0.00589    -0.12426     0.04486
 PX  C  23   0.02639    -0.09681     0.01223     0.09394     0.09774    -0.00735
 PY  C  23  -0.03240     0.04294    -0.04770    -0.07756    -0.06431     0.02562
 PZ  C  23  -0.09389    -0.07123    -0.01863    -0.00591    -0.02793    -0.00141
  
  S  C  24  -0.01254    -0.01516     0.14055     0.20761     0.28382    -0.03332
 PX  C  24  -0.05422     0.16909     0.06807    -0.06489     0.02124    -0.01422
 PY  C  24  -0.06490     0.07827     0.03128    -0.04749     0.04528    -0.01235
 PZ  C  24   0.13002     0.07025     0.01803     0.02176     0.05541     0.00119
  
  S  H  25  -0.01577     0.03244    -0.12221    -0.10721    -0.29396     0.04153
  
  S  H  26   0.09940    -0.18488     0.01125     0.14062     0.03582    -0.02617
  
  S  H  27  -0.06524     0.18441     0.15605     0.01561     0.05231    -0.04121
  
  S  H  28   0.02499     0.01382    -0.07037    -0.12780    -0.23818     0.01521
  
  S  C  29   0.08819    -0.21209    -0.26247     0.00040    -0.00296     0.05961
 PX  C  29  -0.03632     0.08538    -0.05651    -0.09886    -0.18170     0.02820
 PY  C  29   0.04305    -0.08849     0.01531     0.12423    -0.09048    -0.01089
 PZ  C  29   0.23542     0.15710     0.07432     0.01246    -0.00214    -0.01045
  
  S  C  30  -0.13057     0.26929     0.02399    -0.23704     0.00322     0.01075
 PX  C  30   0.01896     0.01144     0.08375    -0.01618    -0.16702    -0.03911
 PY  C  30   0.03717    -0.07230    -0.13367    -0.05910    -0.07718     0.03724
 PZ  C  30  -0.22829    -0.12784    -0.03028    -0.00573    -0.02899     0.00005




    ROOT NO.   61          62          63          64          65          66

             5.32740     5.34650     5.62674     5.76707     6.20503     6.47507
  
  
  S  C   1   0.07017    -0.03536    -0.23314    -0.12178    -0.06462     0.03542
 PX  C   1  -0.11552     0.04998     0.08254     0.19938     0.12892    -0.07258
 PY  C   1   0.01119     0.00222     0.28598     0.02388     0.02289    -0.02057
 PZ  C   1  -0.00464     0.00211     0.01304     0.00867     0.00655    -0.00433
  
  S  C   2   0.15673    -0.06601    -0.11250    -0.23498    -0.13820     0.07690
 PX  C   2   0.06511    -0.02995    -0.16688    -0.10238    -0.05571     0.03383
 PY  C   2  -0.01662     0.00926     0.06763     0.10829     0.13959    -0.11909
 PZ  C   2   0.00949    -0.00411    -0.01826    -0.01271    -0.00577     0.00225
  
  S  C   3  -0.06351     0.01832     0.03394    -0.02696    -0.10910     0.10944
 PX  C   3   0.14976    -0.06748     0.02123    -0.10783     0.06304    -0.11034
 PY  C   3   0.03240    -0.00993    -0.05767    -0.13011    -0.16064     0.14419
 PZ  C   3   0.00007    -0.00109    -0.00516    -0.00136    -0.00067     0.00163
  
  S  C   4   0.05493    -0.02692     0.02544     0.06310     0.15694    -0.15535
 PX  C   4  -0.07159     0.03174    -0.02769     0.12635     0.07348    -0.04340
 PY  C   4  -0.09905     0.03182     0.05372     0.02785    -0.12224     0.15953
 PZ  C   4   0.00235     0.00008     0.01473     0.00165     0.00276    -0.00201
  
  S  C   5  -0.08935     0.03903    -0.07673     0.16557     0.11030    -0.06633
 PX  C   5  -0.03151     0.01096    -0.04502    -0.06850    -0.14317     0.14702
 PY  C   5  -0.07940     0.02976    -0.25132     0.15843     0.15427    -0.12556
 PZ  C   5  -0.00662     0.00156    -0.02986     0.00956     0.01044    -0.00914
  
  S  C   6  -0.10298     0.03400    -0.35277     0.10479     0.05343    -0.02083
 PX  C   6   0.04124    -0.01110     0.29584    -0.06024    -0.04830     0.02378
 PY  C   6   0.06732    -0.03099    -0.07207    -0.13642    -0.09179     0.05385
 PZ  C   6   0.03231    -0.01076     0.09864    -0.03753    -0.02183     0.01050
  
  S  C   7  -0.20952     0.09852    -0.04114     0.12839    -0.07988     0.13239
 PX  C   7  -0.07933     0.02412    -0.02455    -0.00508    -0.08585     0.09955
 PY  C   7   0.04432    -0.03767     0.01407    -0.11903     0.04572    -0.19716
 PZ  C   7   0.01297    -0.00674     0.00354    -0.01419     0.00137    -0.00835
  
  S  C   8   0.16498    -0.05783    -0.04379    -0.09863     0.07789    -0.13013
 PX  C   8  -0.01823    -0.01040    -0.01198     0.12394     0.02052     0.15818
 PY  C   8   0.08090    -0.02934    -0.03477    -0.04241     0.13585    -0.27335
 PZ  C   8   0.02230    -0.00967    -0.00883    -0.00976     0.01168    -0.01471
  
  S  C   9  -0.00560     0.02805     0.02840    -0.15599    -0.03064    -0.19653
 PX  C   9   0.12500    -0.04548    -0.01832    -0.06544     0.06105    -0.09473
 PY  C   9   0.11711    -0.01718     0.00337     0.09858     0.06588     0.14934
 PZ  C   9   0.00677     0.00097    -0.00203     0.00940     0.00802     0.01525
  
  S  C  10   0.05255     0.00634     0.01446     0.14347     0.02895     0.14608
 PX  C  10  -0.14759     0.08706     0.00295    -0.04347    -0.10151    -0.08016
[...]
  S   H   18   -0.0730    0.0368   -0.0169   -0.0713   -0.0122    0.0012    0.3150   -0.0604
  S   H   19   -0.1322    0.3058    0.1464    0.1650    0.1688   -0.0048    0.0609    0.1875
  S   H   20    0.1814    0.2447    0.3042   -0.0573   -0.0011    0.0300   -0.0157   -0.2162
  S   C   21    0.1089    0.0275   -0.0258    0.0032   -0.0078    0.0678    0.0001   -0.0074
  Px  C   21    0.1414    0.0533   -0.2440    0.0239    0.2625   -0.0701    0.0027    0.0659
  Py  C   21   -0.1438   -0.0557    0.0907   -0.0121   -0.0911    0.2586    0.0003    0.0171
  Pz  C   21    0.0062    0.0029   -0.0100    0.0020    0.0059   -0.0264   -0.0003   -0.0060
  S   C   22    0.0442    0.0153    0.0517   -0.0042   -0.0458   -0.1107   -0.0009   -0.0365
  Px  C   22    0.0594    0.0201    0.0574   -0.0076   -0.0640    0.5269    0.0046    0.1339
  Py  C   22    0.0837    0.0185   -0.0398    0.0020    0.0361   -0.0869   -0.0004   -0.0384
  Pz  C   22   -0.0049   -0.0017    0.0084   -0.0007   -0.0054   -0.0364   -0.0003   -0.0101
  S   C   23   -0.0550   -0.0103    0.0438   -0.0033   -0.0397    0.1278    0.0011    0.0230
  Px  C   23   -0.1366   -0.0463   -0.0275    0.0010    0.0365   -0.1878   -0.0027    0.0108
  Py  C   23   -0.0331   -0.0091    0.0602   -0.0061   -0.0533   -0.4602   -0.0042   -0.1062
  Pz  C   23    0.0221    0.0088    0.0058   -0.0004   -0.0060    0.0198    0.0003    0.0006
  S   C   24   -0.1535   -0.0558   -0.0395    0.0050    0.0173   -0.0465   -0.0001    0.0377
  Px  C   24    0.0571    0.0140   -0.0565    0.0024    0.0703   -0.1808   -0.0020    0.0018
  Py  C   24   -0.1995   -0.1121   -0.2069    0.0237    0.2447    0.2197   -0.0024   -0.1703
  Pz  C   24   -0.0454   -0.0218   -0.0294    0.0039    0.0273    0.0440    0.0001   -0.0156
  S   H   25   -0.2017   -0.0677    0.1775   -0.0199   -0.1680    0.1449   -0.0008   -0.0104
  S   H   26   -0.0753   -0.0250   -0.0498    0.0061    0.0490   -0.3295   -0.0030   -0.0822
  S   H   27    0.1175    0.0366   -0.0309    0.0036    0.0176    0.2840    0.0031    0.0502
  S   H   28    0.2444    0.1110    0.1486   -0.0183   -0.1579   -0.1774    0.0008    0.0909
  S   C   29    0.1682    0.0753   -0.1866    0.0108    0.2332    0.0222    0.0001    0.0113
  Px  C   29   -0.0873   -0.0319   -0.0294   -0.0024    0.1104   -0.0810    0.0037    0.0944
  Py  C   29    0.1812    0.1189    0.0550    0.0022   -0.1285   -0.0447    0.0004    0.1428
  Pz  C   29   -0.0175   -0.0049    0.0222   -0.0021   -0.0259   -0.0047    0.0001    0.0030
  S   C   30   -0.1649   -0.0973   -0.1621    0.0113    0.2293    0.0110   -0.0002   -0.0300
  Px  C   30   -0.0935   -0.0718    0.0659    0.0045   -0.0876    0.0532   -0.0026   -0.2456
  Py  C   30    0.1750    0.0904   -0.0521   -0.0058    0.1421    0.0566   -0.0039   -0.0654
  Pz  C   30    0.0118    0.0059    0.0166   -0.0013   -0.0156   -0.0002    0.0000   -0.0105


   Root No.      73        74        75        76        77        78        79        80

                23 a"     26 a'     27 a'     24 a"     25 a"     28 a'     29 a'     26 a"  

                 9.395     9.639    10.162    10.768    11.007    11.483    11.945    12.068
  
  S   C    1    0.0309    0.0761   -0.0578    0.0698   -0.0451    0.0311    0.0152    0.0038
  Px  C    1    0.1205    0.2549    0.0469    0.2418    0.1055   -0.0223   -0.1929    0.1799
  Py  C    1    0.0315    0.0949   -0.2366    0.0351   -0.2013    0.0964    0.1700   -0.1153
  Pz  C    1    0.0064    0.0198   -0.0321    0.0142   -0.0252    0.0135    0.0169   -0.0092
  S   C    2   -0.0546   -0.0888   -0.0614   -0.0435   -0.0670    0.0422    0.0316   -0.0067
  Px  C    2    0.1196    0.2635   -0.0155    0.2676    0.0287    0.0381   -0.1672    0.1933
  Py  C    2   -0.1952   -0.2459   -0.2014    0.0014   -0.1798    0.1566   -0.0177    0.1040
  Pz  C    2    0.0068    0.0132    0.0009    0.0119    0.0026    0.0014   -0.0096    0.0106
  S   C    3   -0.0092   -0.0496   -0.0032   -0.0677   -0.0234    0.0085    0.0198   -0.0161
  Px  C    3   -0.1618   -0.1818   -0.2428    0.0595    0.0062   -0.1926    0.0277   -0.1549
  Py  C    3   -0.0704   -0.0512   -0.1410    0.0630   -0.2462    0.3448   -0.1065    0.3066
  Pz  C    3   -0.0104   -0.0125   -0.0172    0.0027   -0.0047   -0.0054    0.0017   -0.0053
  S   C    4   -0.0152   -0.0471    0.0053   -0.0532    0.0344   -0.0282   -0.0275    0.0113
  Px  C    4   -0.0891   -0.1260    0.2865    0.1116    0.2206   -0.1498    0.0720   -0.1315
  Py  C    4   -0.0469   -0.1261    0.1458   -0.0376   -0.1230    0.3519   -0.0924    0.3152
  Pz  C    4    0.0026    0.0042   -0.0104   -0.0053   -0.0053    0.0014   -0.0008    0.0019
  S   C    5   -0.0550   -0.0980    0.0841   -0.0298    0.0929   -0.0588   -0.0504    0.0183
  Px  C    5   -0.0490   -0.0457    0.1944    0.1504    0.1304   -0.0994    0.1148   -0.1554
  Py  C    5    0.1601    0.2851   -0.1223    0.1491   -0.1513    0.0934    0.1567   -0.1040
  Pz  C    5    0.0053    0.0084   -0.0130   -0.0021   -0.0108    0.0078   -0.0016    0.0052
  S   C    6    0.0356    0.0641    0.0549    0.0692    0.0355   -0.0116   -0.0045    0.0001
  Px  C    6    0.1330    0.2148    0.1474    0.1735    0.0751   -0.0183   -0.0065    0.0030
  Py  C    6    0.0557    0.1330   -0.1817    0.0962   -0.2228    0.1128    0.2761   -0.2054
  Pz  C    6    0.0068    0.0127   -0.0129    0.0056   -0.0163    0.0072    0.0209   -0.0163
  S   C    7    0.0747    0.0409    0.0727   -0.0844   -0.0388    0.0553    0.0421    0.0144
  Px  C    7   -0.1114   -0.1734   -0.1612   -0.0306   -0.0189   -0.1547    0.0840   -0.1652
  Py  C    7    0.2463    0.0679    0.1263   -0.2551   -0.1068    0.0547    0.1577   -0.0223
  Pz  C    7   -0.0089   -0.0089   -0.0102    0.0033    0.0026   -0.0097    0.0009   -0.0076
  S   C    8    0.0411    0.0402   -0.0820   -0.0623    0.0395   -0.0695   -0.0572   -0.0185
  Px  C    8    0.0651   -0.0468    0.0068   -0.1762    0.1279    0.0166   -0.2165    0.1354
  Py  C    8   -0.1347   -0.1747    0.2314    0.0785   -0.0338    0.1773    0.0203    0.1446
  Pz  C    8    0.0045   -0.0016   -0.0045   -0.0136    0.0114   -0.0049   -0.0173    0.0070
  S   C    9   -0.0073    0.0389   -0.0452   -0.0042    0.0016   -0.0293   -0.0237   -0.0046
  Px  C    9    0.0963    0.0018   -0.0696   -0.2176    0.1805   -0.0623   -0.2558    0.1079
  Py  C    9    0.0372    0.0464    0.1008   -0.1311    0.0814   -0.0034    0.3866    0.0985
  Pz  C    9    0.0089   -0.0012    0.0000   -0.0202    0.0151   -0.0028   -0.0051    0.0115
  S   C   10   -0.0120    0.0407    0.0463   -0.0003   -0.0069    0.0320    0.0354    0.0012
  Px  C   10    0.1827    0.0465   -0.0372   -0.2669   -0.1488    0.0065   -0.2110   -0.1286
  Py  C   10    0.1085   -0.0288    0.1171   -0.1621   -0.0908    0.0283    0.3903   -0.0292
  Pz  C   10    0.0086    0.0052    0.0011   -0.0124   -0.0083    0.0019   -0.0043   -0.0054
  S   C   11   -0.0929    0.0174    0.0636    0.0878    0.0306    0.0536    0.0546    0.0008
  Px  C   11    0.1118    0.0716    0.0227   -0.2135   -0.1034    0.0669   -0.1642   -0.1334
  Py  C   11   -0.2520    0.1001    0.1797    0.0994    0.0118    0.1679    0.0415   -0.1019
  Pz  C   11   -0.0079    0.0123    0.0144   -0.0101   -0.0086    0.0144   -0.0094   -0.0152
  S   H   12   -0.1526    0.0296    0.0871    0.0917    0.0376    0.0751    0.0679   -0.0210
  S   C   13   -0.0504    0.0216   -0.0732    0.0717   -0.0330   -0.0478   -0.0452   -0.0083
  Px  C   13   -0.1098    0.1241   -0.1722   -0.0369    0.0502   -0.1937    0.0547    0.1579
  Py  C   13    0.1234    0.0056    0.0856   -0.2102    0.1175    0.0091    0.1464    0.0711
  Pz  C   13   -0.0066    0.0089   -0.0105   -0.0054    0.0058   -0.0117    0.0060    0.0114
  S   H   14    0.1616    0.0833    0.1109   -0.1112   -0.0533    0.0789    0.0618    0.0412
  S   H   15    0.0498    0.1231   -0.1075    0.0891   -0.0696    0.0431    0.0244   -0.0007
  S   H   16   -0.1420   -0.2103   -0.1055   -0.0771   -0.1116    0.0820    0.0397    0.0047
  S   H   17   -0.0891   -0.1454    0.1143   -0.0256    0.1129   -0.0791   -0.0433    0.0018
  S   H   18    0.0858    0.1404    0.0884    0.1111    0.0442   -0.0118   -0.0024    0.0001
  S   H   19    0.0845    0.0796   -0.1168   -0.0703    0.0505   -0.0904   -0.0626   -0.0453
  S   H   20   -0.0893    0.0319   -0.0904    0.0820   -0.0494   -0.0690   -0.0596    0.0149
  S   C   21    0.1103   -0.0894   -0.0617    0.0421    0.0941    0.0466    0.0393    0.0217
  Px  C   21   -0.1356    0.0446    0.1112    0.1590   -0.1587   -0.1488    0.1064    0.1849
  Py  C   21    0.2958   -0.2572   -0.0899    0.1901    0.1311    0.0429    0.1340    0.1307
  Pz  C   21   -0.0281    0.0280    0.0074   -0.0279   -0.0138   -0.0021   -0.0215   -0.0222
  S   C   22   -0.0506    0.0612   -0.0338   -0.0802    0.0511    0.0250   -0.0006   -0.0065
  Px  C   22    0.1277   -0.1511    0.1039    0.1702   -0.1293   -0.0554   -0.0122   -0.0031
  Py  C   22    0.1610   -0.1472   -0.1497    0.1478    0.2390    0.0596    0.2399    0.2487
  Pz  C   22   -0.0200    0.0218   -0.0042   -0.0249    0.0047    0.0049   -0.0097   -0.0123
  S   C   23   -0.0763    0.0686    0.0407   -0.0738   -0.0298   -0.0107   -0.0076    0.0040
  Px  C   23    0.1810   -0.1801    0.0613    0.2102   -0.2084   -0.0672   -0.1864   -0.2126
  Py  C   23    0.1387   -0.0958   -0.1660    0.0589    0.2071    0.0601    0.1372    0.1326
  Pz  C   23   -0.0196    0.0188   -0.0021   -0.0208    0.0135    0.0024    0.0158    0.0200
  S   C   24    0.0682   -0.0616    0.0644    0.0328   -0.1142   -0.0592   -0.0381   -0.0160
  Px  C   24    0.1924   -0.1931    0.0115    0.2382   -0.1115   -0.0061   -0.1540   -0.2132
  Py  C   24   -0.1915    0.1384   -0.1906    0.0377    0.2401    0.1575   -0.0034   -0.0942
  Pz  C   24   -0.0403    0.0354   -0.0207   -0.0245    0.0401    0.0190    0.0185    0.0147
  S   H   25    0.1852   -0.1370   -0.0759    0.0426    0.1163    0.0730    0.0350    0.0056
  S   H   26   -0.0707    0.0864   -0.0628   -0.0980    0.0776    0.0349    0.0076    0.0010
  S   H   27   -0.1265    0.1061    0.0601   -0.0973   -0.0325   -0.0096   -0.0058    0.0057
  S   H   28    0.1553   -0.1254    0.1005    0.0462   -0.1564   -0.0879   -0.0421   -0.0093
  S   C   29    0.0144   -0.0405   -0.0114    0.0738    0.0282    0.0087    0.0263    0.0221
  Px  C   29   -0.2073    0.1072    0.1816    0.1054   -0.2478   -0.1817    0.0729    0.1587
  Py  C   29   -0.1161    0.0725    0.1517    0.0077    0.1260    0.3733   -0.0353   -0.2620
  Pz  C   29   -0.0062    0.0061    0.0058   -0.0052    0.0007    0.0090   -0.0007   -0.0067
  S   C   30    0.0135   -0.0316   -0.0108    0.0634   -0.0290   -0.0098   -0.0192   -0.0223
  Px  C   30   -0.1290    0.1259   -0.2478    0.0336    0.0260   -0.2356    0.0091    0.1359
  Py  C   30   -0.0452    0.0003   -0.1090    0.1113    0.2807    0.3474   -0.0662   -0.2786
  Pz  C   30   -0.0061    0.0071   -0.0109   -0.0012   -0.0025   -0.0175    0.0012    0.0104


   Root No.      81        82        83        84

                30 a'     31 a'     27 a"     28 a"  

                12.732    12.854    13.173    14.597
  
  S   C    1    0.0713    0.0014    0.0070    0.0401
  Px  C    1    0.2004    0.2198   -0.1444    0.0985
  Py  C    1    0.0417   -0.1501    0.1179    0.0280
  Pz  C    1    0.0137   -0.0127    0.0111    0.0073
  S   C    2    0.0138   -0.0130    0.0143    0.0267
  Px  C    2    0.2642    0.2255   -0.1359    0.1477
  Py  C    2    0.1551    0.0706   -0.0160    0.1190
  Pz  C    2    0.0120    0.0126   -0.0079    0.0071
  S   C    3   -0.0121   -0.0002   -0.0090    0.0244
  Px  C    3    0.3066    0.1279   -0.1877    0.2411
  Py  C    3    0.1250    0.1188    0.0202    0.0948
  Pz  C    3    0.0195    0.0085   -0.0098    0.0155
  S   C    4   -0.0105    0.0049    0.0033    0.0242
  Px  C    4    0.2343   -0.1844    0.1767    0.2037
  Py  C    4    0.0638   -0.0478    0.2107    0.1100
  Pz  C    4   -0.0089    0.0073   -0.0071   -0.0061
  S   C    5    0.0081    0.0284   -0.0205    0.0209
  Px  C    5    0.2315   -0.2032    0.1767    0.1695
  Py  C    5    0.1007   -0.1719    0.1477    0.0553
  Pz  C    5   -0.0067    0.0056   -0.0048   -0.0059
  S   C    6    0.0614   -0.0139    0.0199    0.0365
  Px  C    6    0.1319   -0.0250    0.0388    0.0734
  Py  C    6    0.1053   -0.2890    0.2352    0.0698
  Pz  C    6    0.0046   -0.0207    0.0159    0.0028
  S   C    7   -0.0642    0.0108    0.0026    0.0100
  Px  C    7    0.2576    0.1380   -0.1942    0.2630
  Py  C    7    0.0035    0.1341   -0.0848    0.1566
  Pz  C    7    0.0139    0.0054   -0.0080    0.0108
  S   C    8   -0.0513   -0.0112   -0.0160    0.0111
  Px  C    8    0.0556   -0.1911    0.2298    0.2406
  Py  C    8    0.1350   -0.0452    0.1619    0.1084
  Pz  C    8   -0.0005   -0.0110    0.0118    0.0140
  S   C    9   -0.0552    0.0081   -0.0024    0.0085
  Px  C    9   -0.0104   -0.1789    0.2096    0.2476
  Py  C    9   -0.0482    0.3162    0.1526    0.1256
  Pz  C    9    0.0005   -0.0033    0.0206    0.0214
  S   C   10   -0.0654    0.0033   -0.0076    0.0034
  Px  C   10    0.0109   -0.1474   -0.2235    0.2908
  Py  C   10    0.0717    0.3133   -0.0756    0.1448
  Pz  C   10   -0.0043   -0.0044   -0.0112    0.0142
  S   C   11   -0.0660    0.0129   -0.0064   -0.0099
  Px  C   11   -0.0733   -0.1476   -0.2301    0.2922
  Py  C   11   -0.1665   -0.0224   -0.1455    0.1472
  Pz  C   11   -0.0145   -0.0113   -0.0239    0.0280
  S   H   12   -0.0510    0.0345   -0.0108   -0.0019
  S   C   13   -0.0526   -0.0114   -0.0049   -0.0098
  Px  C   13   -0.1987    0.1245    0.2418    0.2342
  Py  C   13   -0.0138    0.1370    0.1454    0.1520
  Pz  C   13   -0.0140    0.0102    0.0178    0.0189
  S   H   14   -0.0569    0.0362    0.0129    0.0043
  S   H   15    0.0753   -0.0082    0.0151    0.0380
  S   H   16   -0.0007   -0.0279    0.0329    0.0136
  S   H   17    0.0123    0.0267   -0.0260    0.0144
  S   H   18    0.0791   -0.0131    0.0203    0.0405
  S   H   19   -0.0443   -0.0275   -0.0256    0.0019
  S   H   20   -0.0382   -0.0356   -0.0018   -0.0073
  S   C   21    0.0086   -0.0150   -0.0143   -0.0255
  Px  C   21   -0.2377   -0.1599   -0.1721    0.1963
  Py  C   21   -0.1138   -0.1274   -0.1427    0.0705
  Pz  C   21    0.0206    0.0195    0.0216   -0.0133
  S   C   22    0.0674    0.0099    0.0173   -0.0440
  Px  C   22   -0.1302   -0.0030   -0.0168    0.0810
  Py  C   22   -0.1199   -0.2209   -0.2331    0.0866
  Pz  C   22    0.0198    0.0117    0.0136   -0.0131
  S   C   23    0.0648   -0.0138   -0.0095   -0.0395
  Px  C   23   -0.1732    0.2094    0.1978    0.0918
  Py  C   23   -0.0450   -0.1061   -0.1073    0.0339
  Pz  C   23    0.0170   -0.0193   -0.0176   -0.0090
  S   C   24    0.0162    0.0110    0.0150   -0.0273
  Px  C   24   -0.2210    0.2130    0.1906    0.1310
  Py  C   24   -0.1575    0.0886    0.0613    0.1229
  Pz  C   24    0.0109   -0.0146   -0.0148   -0.0036
  S   H   25    0.0093   -0.0156   -0.0229   -0.0154
  S   H   26    0.0708    0.0002    0.0067   -0.0410
  S   H   27    0.0729   -0.0137   -0.0084   -0.0401
  S   H   28    0.0115    0.0167    0.0263   -0.0177
  S   C   29   -0.0241   -0.0023    0.0060   -0.0207
  Px  C   29   -0.2318   -0.1521   -0.1758    0.2283
  Py  C   29   -0.1337   -0.0104   -0.1820    0.1656
  Pz  C   29   -0.0042   -0.0027   -0.0093    0.0100
  S   C   30   -0.0113    0.0026   -0.0085   -0.0236
  Px  C   30   -0.2303    0.1169    0.2298    0.2072
  Py  C   30   -0.1707    0.1408    0.0426    0.1254
  Pz  C   30   -0.0104    0.0062    0.0137    0.0107


              NET ATOMIC CHARGES AND DIPOLE CONTRIBUTIONS

  ATOM NO.   TYPE          CHARGE      No. of ELECS.   s-Pop       p-Pop       
    1          C          -0.032424        4.0324     1.09555     2.93687
    2          C          -0.031915        4.0319     1.09244     2.93947
    3          C           0.010542        3.9895     1.06837     2.92108
    4          C           0.006821        3.9932     1.07776     2.91542
    5          C          -0.020121        4.0201     1.09180     2.92832
    6          C          -0.020757        4.0208     1.08418     2.93657
    7          C          -0.033902        4.0339     1.09279     2.94111
    8          C          -0.039868        4.0399     1.10845     2.93142
    9          C           0.018353        3.9816     1.05710     2.92455
   10          C           0.019228        3.9808     1.04978     2.93100
   11          C          -0.034113        4.0341     1.09411     2.94000
   12          H           0.016670        0.9833     0.98333
   13          C          -0.043108        4.0431     1.11519     2.92792
   14          H           0.023893        0.9761     0.97611
   15          H           0.030716        0.9693     0.96928
   16          H           0.023549        0.9765     0.97645
   17          H           0.022607        0.9774     0.97739
   18          H           0.021165        0.9788     0.97883
   19          H           0.028224        0.9718     0.97178
   20          H           0.013365        0.9866     0.98663
   21          C          -0.015135        4.0151     1.08921     2.92593
   22          C          -0.029555        4.0296     1.09543     2.93412
   23          C          -0.021092        4.0211     1.10095     2.92014
   24          C          -0.020525        4.0205     1.08013     2.94040
   25          H           0.015857        0.9841     0.98414
   26          H           0.023920        0.9761     0.97608
   27          H           0.018052        0.9819     0.98195
   28          H           0.034487        0.9655     0.96551
   29          C           0.011037        3.9890     1.06966     2.91930
   30          C           0.004026        3.9960     1.07865     2.91732
 DIPOLE           X         Y         Z       TOTAL
 POINT-CHG.    -0.046     0.077     0.026     0.094
 HYBRID         0.131    -0.025    -0.004     0.133
 SUM            0.085     0.052     0.022     0.102


          ATOMIC ORBITAL ELECTRON POPULATIONS

     Atom    s        px        py        pz   
    1  C   1.09555   0.98238   0.95804   0.99646
    2  C   1.09244   0.97307   0.96380   1.00260
    3  C   1.06837   0.96699   0.97138   0.98271
    4  C   1.07776   0.96169   0.97243   0.98131
    5  C   1.09180   0.96818   0.95405   1.00608
    6  C   1.08418   0.95676   0.98896   0.99085
    7  C   1.09279   0.96504   0.95831   1.01777
    8  C   1.10845   0.97187   0.94523   1.01432
    9  C   1.05710   0.97141   0.97753   0.97560
   10  C   1.04978   0.97049   0.98010   0.98040
   11  C   1.09411   0.96666   0.94669   1.02665
   12  H   0.98333
   13  C   1.11519   0.96132   0.95030   1.01630
   14  H   0.97611
   15  H   0.96928
   16  H   0.97645
   17  H   0.97739
   18  H   0.97883
   19  H   0.97178
   20  H   0.98663
   21  C   1.08921   0.97098   0.96299   0.99196
   22  C   1.09543   0.94011   0.99086   1.00315
   23  C   1.10095   0.96990   0.95468   0.99556
   24  C   1.08013   0.97776   0.95703   1.00561
   25  H   0.98414
   26  H   0.97608
   27  H   0.98195
   28  H   0.96551
   29  C   1.06966   0.96795   0.96631   0.98503
   30  C   1.07865   0.97193   0.96461   0.98078

 **********************
 *                    *
 * JOB ENDED NORMALLY *
 *                    *
 **********************



 TOTAL JOB TIME:             1.43 SECONDS

 == MOPAC DONE ==


          MOPAC Job: "./tetraceneTraj/tetracene_719.mop" ended normally on Feb 15, 2023, at 11:26.

rm: cannot remove ./tetraceneTraj/tetracene_719.cim: No such file or directory
rm: cannot remove ./tetraceneTraj/tetracene_719.end: No such file or directory
rm: cannot remove ./tetraceneTraj/tetracene_719.log: No such file or directory
rm: cannot remove ./tetraceneTraj/tetracene_719.temp: No such file or directory
rm: cannot remove ./tetraceneTraj/tetracene_719.ple: No such file or directory
rm: cannot remove ./tetraceneTraj/tetracene_719.sts: No such file or directory
