 *******************************************************************************
 ** Site#:    0         For non-commercial use only    Version 20.173L 64BITS **
 *******************************************************************************
 ** Cite this program as: MOPAC2016, Version: 20.173L, James J. P. Stewart,   **
 ** Stewart Computational Chemistry, web-site: HTTP://OpenMOPAC.net.          **
 *******************************************************************************
 **                                                                           **
 **                                MOPAC2016                                  **
 **                                                                           **
 *******************************************************************************

                              INDO CALCULATION RESULTS

 *******************************************************************************
 *  CALCULATION DONE:                                Wed Feb 15 11:26:36 2023  *
 *  INDO       - The INDO Hamiltonian to be used
 *
 *
 *
 *                 CHARGE ON SYSTEM = 0
 *
 *
 *
 *  C.I.=(N,M) - 3 DOUBLY FILLED LEVELS USED IN A C.I. INVOLVING 6 M.O.'S
 *  T=         - A TIME OF 172800.0 SECONDS REQUESTED
 *  DUMP=N     - RESTART FILE WRITTEN EVERY 7200.0 SECONDS REQUESTED
 *  RELSCF     - DEFAULT SCF CRITERION MULTIPLIED BY 0.0000
 *              (DEFAULT SCF CRITERION = 0.00010)
 *  ALLVEC     - PRINT ALL EIGENVECTORS
 **********
 *  WARNING: Specified print options may not behave as expected with INDO
 **********
 *******************************************************************************
INDO C.I.=(6,3) AllVEC CHARGE=0 RELSCF=0.000001


   ATOM   CHEMICAL          X               Y               Z
  NUMBER   SYMBOL      (ANGSTROMS)     (ANGSTROMS)     (ANGSTROMS)
 
     1       C         18.45621604  *  19.51051199  *  22.28941247  *
     2       C         19.84550577  *  19.48217161  *  22.35155387  *
     3       C         20.65064233  *  20.65756174  *  22.41235887  *
     4       C         19.99346958  *  21.96800482  *  22.40305977  *
     5       C         18.54360192  *  21.94090785  *  22.42699697  *
     6       C         17.75939947  *  20.77617292  *  22.40953581  *
     7       C         22.06795338  *  20.62354091  *  22.45028226  *
     8       C         20.75221937  *  23.15688369  *  22.37738209  *
     9       C         22.16878405  *  23.12390364  *  22.48570158  *
    10       C         22.88071206  *  21.80347398  *  22.51496197  *
    11       C         24.30121805  *  21.83662426  *  22.58060097  *
    12       H         24.80367512  *  20.85884259  *  22.55228344  *
    13       C         22.93553160  *  24.31462376  *  22.58063373  *
    14       H         22.60977352  *  19.67430166  *  22.44722765  *
    15       H         17.85248086  *  18.55118066  *  22.18719058  *
    16       H         20.38128777  *  18.55258979  *  22.19051618  *
    17       H         17.97406726  *  22.95484678  *  22.51017988  *
    18       H         16.64181518  *  20.79201669  *  22.29970290  *
    19       H         20.25030814  *  24.14271880  *  22.33230795  *
    20       H         22.39349258  *  25.24885086  *  22.61683058  *
    21       C         26.51889312  *  23.06803195  *  22.63652952  *
    22       C         27.18263434  *  24.24494559  *  22.54016492  *
    23       C         26.44249350  *  25.52503268  *  22.59008876  *
    24       C         25.09937074  *  25.56455356  *  22.71052348  *
    25       H         27.11732608  *  22.11244007  *  22.59395386  *
    26       H         28.27949996  *  24.30535441  *  22.48300169  *
    27       H         26.98623263  *  26.51715681  *  22.55972709  *
    28       H         24.58379946  *  26.50968405  *  22.90522333  *
    29       C         25.06471000  *  23.03591744  *  22.62344783  *
    30       C         24.34724816  *  24.34866062  *  22.64379536  *
 


          CARTESIAN COORDINATES 

    NO.       ATOM           X           Y           Z

     1         C         18.4562     19.5105     22.2894
     2         C         19.8455     19.4822     22.3516
     3         C         20.6506     20.6576     22.4124
     4         C         19.9935     21.9680     22.4031
     5         C         18.5436     21.9409     22.4270
     6         C         17.7594     20.7762     22.4095
     7         C         22.0680     20.6235     22.4503
     8         C         20.7522     23.1569     22.3774
     9         C         22.1688     23.1239     22.4857
    10         C         22.8807     21.8035     22.5150
    11         C         24.3012     21.8366     22.5806
    12         H         24.8037     20.8588     22.5523
    13         C         22.9355     24.3146     22.5806
    14         H         22.6098     19.6743     22.4472
    15         H         17.8525     18.5512     22.1872
    16         H         20.3813     18.5526     22.1905
    17         H         17.9741     22.9548     22.5102
    18         H         16.6418     20.7920     22.2997
    19         H         20.2503     24.1427     22.3323
    20         H         22.3935     25.2489     22.6168
    21         C         26.5189     23.0680     22.6365
    22         C         27.1826     24.2449     22.5402
    23         C         26.4425     25.5250     22.5901
    24         C         25.0994     25.5646     22.7105
    25         H         27.1173     22.1124     22.5940
    26         H         28.2795     24.3054     22.4830
    27         H         26.9862     26.5172     22.5597
    28         H         24.5838     26.5097     22.9052
    29         C         25.0647     23.0359     22.6234
    30         C         24.3472     24.3487     22.6438

           Empirical Formula: C18 H12  =    30 atoms



      MOLECULAR POINT GROUP   :   C1  


      RHF CALCULATION, NO. OF DOUBLY OCCUPIED LEVELS = 42

 WARNING: INDO only performs single-point calculations
  SCF CRITERION =    0.1000E-09

 Summary of symmetry occupancy in each shell:

 SHELL     
    1   42
    v   42
 TOTAL  84




    ROOT NO.    1           2           3           4           5           6

           -44.52933   -43.09059   -40.44638   -36.86857   -35.68164   -34.11172
  
  
  S  C   1   0.12662     0.20609    -0.26293     0.26258     0.03688    -0.07596
 PX  C   1   0.03595     0.05269    -0.04988     0.01572     0.03944    -0.08013
 PY  C   1   0.04612     0.07225    -0.08362     0.06766    -0.02257     0.04816
 PZ  C   1   0.00461     0.00739    -0.00898     0.00786    -0.00044     0.00099
  
  S  C   2   0.16634     0.23941    -0.23077     0.12660     0.14993    -0.26428
 PX  C   2  -0.00252    -0.02220     0.06861    -0.11417     0.04767    -0.06174
 PY  C   2   0.06517     0.08677    -0.06482     0.00401     0.01051    -0.01050
 PZ  C   2  -0.00005    -0.00075     0.00247    -0.00417    -0.00197     0.00489
  
  S  C   3   0.27882     0.29965    -0.08727    -0.16625     0.15735    -0.21706
 PX  C   3  -0.00238    -0.05323     0.13823    -0.13871     0.07588    -0.06790
 PY  C   3   0.05236     0.02751     0.06026    -0.10304    -0.08670     0.13622
 PZ  C   3  -0.00076    -0.00288     0.00566    -0.00452    -0.00056     0.00337
  
  S  C   4   0.27569     0.28859    -0.06635    -0.18226    -0.16522     0.20902
 PX  C   4   0.04578    -0.00260     0.12277    -0.15717     0.02964    -0.07389
 PY  C   4  -0.03335    -0.06467     0.08798    -0.05899    -0.10529     0.11849
 PZ  C   4   0.00115     0.00025     0.00172    -0.00144    -0.00067     0.00101
  
  S  C   5   0.15730     0.22398    -0.21118     0.11351    -0.15768     0.26858
 PX  C   5   0.05147     0.05720    -0.01191    -0.06323    -0.03397     0.03229
 PY  C   5  -0.04025    -0.06959     0.09572    -0.09742    -0.01992     0.01735
 PZ  C   5  -0.00156    -0.00266     0.00342    -0.00293    -0.00011     0.00024
  
  S  C   6   0.12172     0.19818    -0.25343     0.25619    -0.06366     0.13209
 PX  C   6   0.05764     0.08846    -0.09677     0.06587    -0.01099     0.01642
 PY  C   6   0.00089    -0.00180     0.01152    -0.02864    -0.03756     0.07451
 PZ  C   6  -0.00286    -0.00497     0.00715    -0.00861     0.00012    -0.00046
  
  S  C   7   0.23333     0.14628     0.13912    -0.22785     0.29599    -0.22733
 PX  C   7  -0.03499    -0.07017     0.04711     0.07767     0.02656     0.06556
 PY  C   7   0.07430     0.02207     0.08467    -0.06389     0.00251     0.04182
 PZ  C   7   0.00055    -0.00193     0.00371     0.00125     0.00212     0.00269
  
  S  C   8   0.23642     0.13708     0.15896    -0.23295    -0.29741     0.21617
 PX  C   8   0.04671    -0.01912     0.09569    -0.00357    -0.01755    -0.06035
 PY  C   8  -0.06953    -0.07006    -0.01106     0.10519    -0.01948    -0.03138
 PZ  C   8   0.00749     0.00243     0.00748    -0.00487    -0.00794     0.00281
  
  S  C   9   0.31832     0.01264     0.31745    -0.00024    -0.21223     0.04275
 PX  C   9   0.02125    -0.08188     0.02773     0.19345     0.07757    -0.06630
 PY  C   9  -0.04308    -0.04824    -0.03345     0.10412    -0.13925    -0.01138
 PZ  C   9   0.00186    -0.00533     0.00213     0.01381     0.00071    -0.00457
  
  S  C  10   0.30831     0.01550     0.30545     0.00207     0.23913    -0.02801
 PX  C  10  -0.02869    -0.08233    -0.01525     0.18954     0.07345     0.05010
 PY  C  10   0.04833    -0.04245     0.05132     0.10121    -0.11894     0.05609
 PZ  C  10  -0.00181    -0.00456    -0.00119     0.01108     0.00041     0.00253
  
  S  C  11   0.22516    -0.12076     0.17102     0.23230     0.31971     0.14563
 PX  C  11  -0.04583    -0.02424    -0.09203    -0.00968    -0.01267     0.07757
 PY  C  11   0.06538    -0.06458     0.02045     0.09922    -0.01363     0.04346
 PZ  C  11  -0.00239    -0.00100    -0.00397     0.00082    -0.00403     0.00152
  
  S  H  12   0.06896    -0.03435     0.05119     0.06236     0.16148     0.06817
  
  S  C  13   0.23930    -0.13163     0.17681     0.23680    -0.30819    -0.14323
 PX  C  13   0.03158    -0.07252    -0.03804     0.08399     0.02488    -0.08366
 PY  C  13  -0.07192     0.01044    -0.09130    -0.05774    -0.01253    -0.05649
 PZ  C  13  -0.00166    -0.00230    -0.00486     0.00227     0.00143    -0.00667
  
  S  H  14   0.07205     0.04333     0.04128    -0.06006     0.15326    -0.11310
  
  S  H  15   0.03008     0.05154    -0.07352     0.08880     0.01613    -0.03454
  
  S  H  16   0.05229     0.07295    -0.06555     0.02978     0.08400    -0.14346
  
  S  H  17   0.04252     0.05838    -0.05100     0.02354    -0.07500     0.12449
  
  S  H  18   0.02908     0.04987    -0.07146     0.08774    -0.02470     0.05481
  
  S  H  19   0.07184     0.03813     0.04869    -0.06075    -0.15164     0.10365
  
  S  H  20   0.07772    -0.04099     0.05507     0.06597    -0.16767    -0.07419
  
  S  C  21   0.16103    -0.24225    -0.19864    -0.11014     0.19994     0.30575
 PX  C  21  -0.04856     0.05576     0.00759    -0.05561    -0.03419    -0.01821
 PY  C  21   0.04368    -0.07874    -0.09160    -0.08988    -0.01752    -0.00364
 PZ  C  21  -0.00358     0.00553     0.00507     0.00414    -0.00564    -0.00935
  
  S  C  22   0.13509    -0.22925    -0.24644    -0.23507     0.08547     0.16159
 PX  C  22  -0.06049     0.09628     0.08729     0.05352    -0.00949    -0.01013
 PY  C  22  -0.00529     0.00539    -0.00281    -0.01775    -0.06000    -0.10618
 PZ  C  22   0.00467    -0.00793    -0.00832    -0.00700     0.00142     0.00271
  
  S  C  23   0.13885    -0.23492    -0.25044    -0.23356    -0.07087    -0.12605
 PX  C  23  -0.03861     0.05862     0.04575     0.01190     0.05913     0.10430
 PY  C  23  -0.04875     0.07910     0.07572     0.05560    -0.02967    -0.05818
 PZ  C  23   0.00282    -0.00475    -0.00481    -0.00346    -0.00436    -0.00816
  
  S  C  24   0.17131    -0.25643    -0.20643    -0.10540    -0.19892    -0.30452
 PX  C  24   0.00941    -0.03553    -0.07461    -0.10829     0.04060     0.03071
 PY  C  24  -0.06559     0.09001     0.05376    -0.00291     0.01533     0.01082
 PZ  C  24  -0.00562     0.00855     0.00727     0.00473     0.00185     0.00248
  
  S  H  25   0.04473    -0.06571    -0.05163    -0.02726     0.09459     0.14179
  
  S  H  26   0.03422    -0.06122    -0.07383    -0.08562     0.03436     0.06961
  
  S  H  27   0.03432    -0.06104    -0.07260    -0.08158    -0.03159    -0.05931
  
  S  H  28   0.05169    -0.07506    -0.05656    -0.02465    -0.10167    -0.15122
  
  S  C  29   0.26620    -0.28499    -0.03919     0.17528     0.19429     0.20064
 PX  C  29  -0.04019    -0.01525    -0.12749    -0.15585     0.03815     0.08940
 PY  C  29   0.03444    -0.06985    -0.08161    -0.05647    -0.11262    -0.09674
 PZ  C  29  -0.00238     0.00091    -0.00279    -0.00300    -0.00390    -0.00366
  
  S  C  30   0.27534    -0.29764    -0.04602     0.17714    -0.17759    -0.20196
 PX  C  30   0.00482    -0.06462    -0.13854    -0.13465     0.07708     0.04198
 PY  C  30  -0.04630     0.01578    -0.06973    -0.10127    -0.10466    -0.13705
 PZ  C  30  -0.00365     0.00155    -0.00447    -0.00581    -0.00040    -0.00346




    ROOT NO.    7           8           9          10          11          12

           -31.88181   -31.32378   -28.79749   -28.17790   -26.87595   -26.04770
  
  
  S  C   1   0.13721     0.28199    -0.18917    -0.25315     0.04245     0.21261
 PX  C   1   0.11243    -0.07483    -0.12273     0.14551    -0.02920     0.07578
 PY  C   1  -0.07363     0.02693     0.10485     0.00954     0.05414    -0.11361
 PZ  C   1  -0.00134     0.00423     0.00259     0.00029     0.00498    -0.00373
  
  S  C   2   0.30153    -0.02230    -0.21002     0.10718    -0.10151     0.04430
 PX  C   2   0.00471    -0.14466     0.12017     0.10817    -0.07617    -0.20583
 PY  C   2  -0.01517    -0.07996     0.06945     0.09335     0.07912    -0.10039
 PZ  C   2  -0.00948    -0.00589     0.01423     0.00431     0.00700    -0.01317
  
  S  C   3   0.11338    -0.23814     0.09418     0.10935     0.08549    -0.18306
 PX  C   3  -0.03591     0.04257     0.13756    -0.15924    -0.06401    -0.08209
 PY  C   3  -0.12018    -0.02171     0.00756    -0.07962     0.18623     0.10866
 PZ  C   3  -0.00782     0.00263     0.00861    -0.00590     0.00247    -0.00110
  
  S  C   4  -0.11343    -0.26539    -0.09764     0.10614     0.08098     0.18758
 PX  C   4   0.10102     0.02641    -0.05121    -0.17630     0.12024    -0.04029
 PY  C   4  -0.02161     0.03645    -0.11430    -0.09437    -0.16023     0.11726
 PZ  C   4  -0.00213     0.00054     0.00434     0.00111     0.00153    -0.00291
  
  S  C   5  -0.28876    -0.06370     0.18308     0.15745    -0.12904    -0.05365
 PX  C   5   0.01782    -0.15314    -0.13515     0.12304     0.03727     0.20016
 PY  C   5   0.01127    -0.07740    -0.07346     0.02902    -0.09478     0.10055
 PZ  C   5  -0.00088    -0.00233     0.00179     0.00304    -0.00320    -0.00167
  
  S  C   6  -0.17994     0.26585     0.22575    -0.21730     0.00999    -0.20719
 PX  C   6  -0.00781    -0.01720    -0.02276     0.08277     0.03304     0.05269
 PY  C   6  -0.11048    -0.08950     0.13052     0.14152    -0.07528    -0.12965
 PZ  C   6   0.00021    -0.01361    -0.00064     0.01675    -0.00370     0.00010
  
  S  C   7  -0.11162     0.02851     0.25734    -0.12338    -0.17171    -0.02807
 PX  C   7  -0.13277     0.14529    -0.03189    -0.00961    -0.11550     0.20144
 PY  C   7  -0.07428     0.07946    -0.00876    -0.08117     0.16156     0.10433
 PZ  C   7  -0.00811     0.00685     0.00130    -0.00156    -0.00120     0.00931
  
  S  C   8   0.11209     0.01454    -0.24177    -0.14450    -0.17091     0.02528
 PX  C   8   0.12373     0.16285     0.03648    -0.07356     0.06924    -0.19560
 PY  C   8   0.07625     0.07974     0.01449     0.04203    -0.18105    -0.11025
 PZ  C   8   0.00612     0.00630    -0.00076    -0.00339     0.00146    -0.00708
  
  S  C   9   0.19833     0.25137    -0.02853     0.00788     0.09562    -0.17714
 PX  C   9  -0.05150     0.00199     0.10572     0.18956     0.12104     0.04709
 PY  C   9   0.14533    -0.02015     0.03550     0.09544    -0.21956    -0.11440
 PZ  C   9  -0.00035    -0.00097     0.00962     0.01563     0.00403     0.00221
  
  S  C  10  -0.22277     0.24283     0.02143     0.01891     0.07725     0.18126
 PX  C  10  -0.07403    -0.02658    -0.11737     0.17749    -0.12521     0.05897
 PY  C  10   0.10991     0.01553    -0.08000     0.09452     0.22779    -0.10398
 PZ  C  10  -0.00133    -0.00288    -0.00524     0.01134    -0.00201     0.00090
  
  S  C  11  -0.19176    -0.01351    -0.24401     0.11803    -0.17887    -0.00250
 PX  C  11   0.10125    -0.14991    -0.06423    -0.10240    -0.07448    -0.18758
 PY  C  11   0.06188    -0.08703    -0.03649     0.02164     0.18509    -0.11599
 PZ  C  11   0.00566    -0.00834    -0.00154    -0.00361     0.00356    -0.00936
  
  S  H  12  -0.09707    -0.00176    -0.11307     0.01882    -0.21908     0.00994
  
  S  C  13   0.19873     0.00937     0.22408     0.13893    -0.15930     0.01170
 PX  C  13  -0.10537    -0.15594     0.07778    -0.01731     0.12106     0.19831
 PY  C  13  -0.05141    -0.08124     0.04982    -0.08805    -0.16503     0.11832
 PZ  C  13  -0.00841    -0.01172     0.00676    -0.00380    -0.00093     0.01684
  
  S  H  14  -0.05454     0.01514     0.11655    -0.02238    -0.21516    -0.00750
  
  S  H  15   0.06636     0.14268    -0.10482    -0.17130     0.00312     0.13870
  
  S  H  16   0.15593    -0.01160    -0.10201     0.03727    -0.12271     0.01321
  
  S  H  17  -0.13107    -0.02573     0.08368     0.05434    -0.12711    -0.03161
  
  S  H  18  -0.08321     0.13702     0.12471    -0.15357    -0.01449    -0.13654
  
  S  H  19   0.06039     0.00502    -0.11492    -0.02862    -0.21108     0.00626
  
  S  H  20   0.10115     0.00871     0.10849     0.02863    -0.21478     0.00812
  
  S  C  21   0.26054    -0.03702     0.14388    -0.13153    -0.13036     0.02181
 PX  C  21   0.04122     0.13980     0.12993     0.15210    -0.03916     0.18605
 PY  C  21   0.03118     0.07844     0.08218     0.05167     0.10371     0.09767
 PZ  C  21  -0.00938    -0.00353    -0.00840    -0.00289     0.00381    -0.00723
  
  S  C  22   0.17822     0.25042     0.18293     0.25944     0.02523     0.18256
 PX  C  22   0.00410     0.02334     0.02854     0.09797    -0.04250     0.06555
 PY  C  22  -0.12314     0.07448    -0.12926     0.13157     0.07804    -0.10103
 PZ  C  22   0.00275     0.00295     0.00241    -0.00289     0.00127     0.00068
  
  S  C  23  -0.16797     0.25352    -0.20678     0.24043     0.03589    -0.18512
 PX  C  23   0.11199     0.06988     0.09140     0.16305     0.03844     0.06038
 PY  C  23  -0.07425    -0.01641    -0.09831     0.00756    -0.07291    -0.10145
 PZ  C  23  -0.01003    -0.00104    -0.01036    -0.00880    -0.00497    -0.00808
  
  S  C  24  -0.26514    -0.02028    -0.13977    -0.12196    -0.11780    -0.01220
 PX  C  24  -0.04565     0.13616    -0.15381     0.10198     0.07365    -0.19611
 PY  C  24  -0.02362     0.07877    -0.08397     0.09425    -0.08762    -0.09837
 PZ  C  24   0.00203    -0.00301     0.00191    -0.00296    -0.00973     0.00395
  
  S  H  25   0.11962    -0.01375     0.06667    -0.04302    -0.13400     0.02077
  
  S  H  26   0.08559     0.13706     0.10325     0.18988    -0.00954     0.12878
  
  S  H  27  -0.08562     0.13139    -0.12412     0.16597    -0.00913    -0.12787
  
  S  H  28  -0.12645    -0.00786    -0.06636    -0.04146    -0.13248    -0.00096
  
  S  C  29   0.05244    -0.25987    -0.12538    -0.14863     0.08351    -0.19169
 PX  C  29   0.09743     0.00339     0.04638    -0.16052    -0.12282    -0.04783
 PY  C  29   0.02215    -0.02324     0.13498    -0.07700     0.16772     0.10268
 PZ  C  29  -0.00061    -0.00315     0.00154    -0.00701     0.00115    -0.00009
  
  S  C  30  -0.04464    -0.24408     0.14485    -0.12206     0.09403     0.18102
 PX  C  30  -0.07046    -0.02043    -0.12583    -0.16097     0.07383    -0.07929
 PY  C  30  -0.08130     0.02526     0.03088    -0.08001    -0.18790     0.11482
 PZ  C  30  -0.00625    -0.00283    -0.00315    -0.01054    -0.00668     0.00397




    ROOT NO.   13          14          15          16          17          18

           -25.13755   -23.94551   -22.86161   -21.64133   -20.53185   -19.46676
  
  
  S  C   1  -0.01588    -0.13251    -0.01588     0.17286    -0.03769    -0.00746
 PX  C   1   0.03329     0.23242     0.00551    -0.00384     0.22427     0.17762
 PY  C   1  -0.12582     0.01218    -0.17639    -0.12714    -0.12831     0.20332
 PZ  C   1  -0.01141     0.00498    -0.01828    -0.00707    -0.00731     0.02969
  
  S  C   2   0.15012     0.16343     0.12474    -0.10735     0.11345     0.01639
 PX  C   2   0.08300    -0.03793     0.08351    -0.17773    -0.13935    -0.15335
 PY  C   2  -0.17111     0.00982    -0.20400    -0.08653    -0.15882     0.09471
 PZ  C   2  -0.01661    -0.00530    -0.02220    -0.00472    -0.02267     0.01313
  
  S  C   3  -0.12174    -0.10230    -0.02583    -0.10518    -0.06853    -0.13502
 PX  C   3   0.13104    -0.16241     0.14764     0.10408     0.00967    -0.02497
 PY  C   3  -0.19681    -0.08223    -0.05209     0.12191     0.13601    -0.08046
 PZ  C   3  -0.00348    -0.00458    -0.00394     0.01266    -0.00018     0.00388
  
  S  C   4  -0.08918    -0.09923    -0.02052     0.09798    -0.05991    -0.14790
 PX  C   4  -0.09145    -0.16097     0.05738    -0.17049     0.10483    -0.04595
 PY  C   4   0.23919    -0.08114     0.15604    -0.00556    -0.07403     0.03838
 PZ  C   4  -0.00181     0.00568     0.00031     0.00900     0.00861    -0.00319
  
  S  C   5   0.16740     0.18093     0.12160     0.12066     0.13449     0.00346
 PX  C   5  -0.08577    -0.01417    -0.14085     0.16648    -0.20041    -0.03520
 PY  C   5   0.16015    -0.03559     0.16018     0.10727    -0.01752    -0.18009
 PZ  C   5   0.00609     0.00614     0.00837     0.00507     0.01286    -0.00376
  
  S  C   6  -0.00478    -0.12954     0.02134    -0.17039    -0.05255    -0.00260
 PX  C   6  -0.08496     0.13933    -0.15584     0.09732     0.03387     0.26188
 PY  C   6   0.10406     0.19110     0.11952    -0.06130     0.25686     0.03837
 PZ  C   6   0.00399     0.02019     0.00221     0.00446     0.02102     0.01368
  
  S  C   7   0.12778    -0.09419    -0.06551     0.21820    -0.05567     0.15188
 PX  C   7   0.03711     0.15412    -0.16207     0.09032     0.01272     0.16211
 PY  C   7  -0.12019     0.08609     0.03215     0.01367     0.22195    -0.02709
 PZ  C   7  -0.00242     0.00680    -0.00850     0.00711     0.00284     0.00553
  
  S  C   8   0.13634    -0.09692    -0.03889    -0.19745    -0.07964     0.16868
 PX  C   8  -0.10547     0.15138    -0.06686    -0.07822     0.19037     0.06797
 PY  C   8   0.07625     0.07381    -0.15172    -0.04284    -0.11914     0.13666
 PZ  C   8  -0.00403     0.00721    -0.00038     0.00434     0.01357    -0.00680
  
  S  C   9  -0.01780     0.22241     0.03340    -0.00721     0.00502    -0.00801
 PX  C   9   0.00727     0.04378     0.10926     0.17889    -0.16303    -0.15759
 PY  C   9   0.01265    -0.06969    -0.20865     0.08991    -0.10515    -0.07040
 PZ  C   9  -0.00178     0.00029     0.00532     0.02198    -0.01103    -0.02192
  
  S  C  10   0.00156     0.22525     0.02744    -0.00252    -0.00130    -0.01511
 PX  C  10   0.01711    -0.04178    -0.09619    -0.17905    -0.19112    -0.14532
 PY  C  10  -0.01506     0.06944     0.21717    -0.09382    -0.08128    -0.08844
 PZ  C  10   0.00042    -0.00335    -0.00143    -0.00656    -0.01293    -0.01129
  
  S  C  11  -0.11226    -0.11625    -0.06679    -0.21661     0.05664    -0.13286
 PX  C  11  -0.09145    -0.16546     0.02708     0.06348     0.21299     0.08171
 PY  C  11   0.06267    -0.07368     0.17501     0.07518    -0.08193     0.15569
 PZ  C  11  -0.00005    -0.00935     0.00568     0.00523     0.00498     0.01022
  
  S  H  12  -0.11874    -0.06708    -0.12881    -0.12799     0.14302    -0.13699
  
  S  C  13  -0.10682    -0.10046    -0.08221     0.20000     0.06561    -0.15322
 PX  C  13   0.03083    -0.14573     0.17211    -0.06067     0.02014     0.16035
 PY  C  13  -0.10376    -0.09878    -0.06095    -0.03584     0.21938    -0.02174
 PZ  C  13  -0.00654    -0.01269     0.01064    -0.00223     0.01266     0.00526
  
  S  H  14   0.14365    -0.04932    -0.10445     0.12645    -0.15381     0.14884
  
  S  H  15   0.04656    -0.15237     0.08851     0.16372    -0.02787    -0.20465
  
  S  H  16   0.20174     0.06604     0.20780    -0.05807     0.10508    -0.10121
  
  S  H  17   0.19743     0.07234     0.19463     0.06293     0.12099    -0.09540
  
  S  H  18   0.04971    -0.15436     0.11365    -0.15571    -0.05124    -0.19692
  
  S  H  19   0.14247    -0.05248    -0.08906    -0.09549    -0.16864     0.14768
  
  S  H  20  -0.12252    -0.06137    -0.13268     0.09549     0.15351    -0.14562
  
  S  C  21  -0.18472     0.17089     0.12371     0.12747    -0.10337    -0.02904
 PX  C  21  -0.10125     0.00209     0.16039    -0.14440    -0.18898     0.01388
 PY  C  21   0.16472     0.03987    -0.14286    -0.11280    -0.04778    -0.13877
 PZ  C  21   0.00634    -0.00203    -0.00629     0.00456     0.00663     0.00243
  
  S  C  22   0.02592    -0.13642     0.00195    -0.16192     0.04501     0.01632
 PX  C  22  -0.09940    -0.14386     0.16369    -0.09301     0.02006     0.24526
 PY  C  22   0.12663    -0.19832    -0.13578     0.02998     0.24602     0.02836
 PZ  C  22   0.00287     0.01248    -0.00531     0.00255    -0.01133    -0.01748
  
  S  C  23   0.02576    -0.13837    -0.02581     0.16859     0.05628    -0.01577
 PX  C  23   0.05310    -0.22979    -0.02747     0.01219     0.20827     0.12955
 PY  C  23  -0.15478    -0.02241     0.19644     0.15299    -0.10409     0.17169
 PZ  C  23  -0.00952     0.01919     0.00972     0.00149    -0.02537    -0.00711
  
  S  C  24  -0.17110     0.15337     0.12718    -0.11056    -0.10112    -0.00129
 PX  C  24   0.08150     0.03044    -0.06448     0.17633    -0.11896    -0.12565
 PY  C  24  -0.18109    -0.02502     0.20212     0.11757    -0.11999     0.09062
 PZ  C  24  -0.01859     0.00315     0.02297    -0.00854    -0.00967     0.02064
  
  S  H  25  -0.21530     0.06401     0.19597     0.07265    -0.09207     0.07320
  
  S  H  26  -0.04341    -0.17019     0.10416    -0.14702     0.04874     0.19436
  
  S  H  27  -0.05507    -0.15360     0.09185     0.18283     0.03684     0.15187
  
  S  H  28  -0.21505     0.05515     0.20119    -0.04125    -0.08389     0.09790
  
  S  C  29   0.09520    -0.09418    -0.01614     0.10745     0.06516     0.15113
 PX  C  29  -0.09151     0.16254    -0.08094     0.14686     0.10852    -0.11049
 PY  C  29   0.22740     0.10951    -0.11624     0.01508    -0.11018     0.02551
 PZ  C  29   0.00321     0.00244    -0.00289     0.00218     0.00322     0.00761
  
  S  C  30   0.12111    -0.08411    -0.00873    -0.09968     0.04326     0.14008
 PX  C  30   0.13786     0.17059    -0.13585    -0.11482    -0.03668    -0.01680
 PY  C  30  -0.18430     0.08194     0.00492    -0.15130     0.13350    -0.10163
 PZ  C  30  -0.00759     0.00706     0.00419    -0.01445     0.00422     0.00827




    ROOT NO.   19          20          21          22          23          24

           -18.35593   -17.19728   -16.71472   -16.55705   -16.06790   -15.28120
  
  
  S  C   1  -0.15976     0.00653     0.02358    -0.12623     0.03605     0.05355
 PX  C   1   0.08673     0.18122     0.05639     0.04167     0.13703    -0.02588
 PY  C   1   0.15283    -0.17181    -0.03764     0.03122     0.20763    -0.02800
 PZ  C   1   0.00962    -0.01391     0.00360    -0.01304     0.03584     0.01586
  
  S  C   2   0.15860    -0.01779     0.00496     0.07241    -0.00148    -0.01946
 PX  C   2   0.09020    -0.20029    -0.06811     0.05337    -0.14644    -0.00352
 PY  C   2  -0.00994    -0.10226     0.07781    -0.21036    -0.06832     0.15415
 PZ  C   2  -0.01189    -0.01767     0.01294    -0.04081     0.00222     0.03827
  
  S  C   3  -0.04834     0.04596     0.11448    -0.16668    -0.09999     0.05376
 PX  C   3  -0.16926     0.01377     0.03393    -0.12957     0.22732    -0.04948
 PY  C   3  -0.05920     0.26301     0.01291     0.11391    -0.03687    -0.07990
 PZ  C   3  -0.02201     0.00017     0.01141    -0.02219     0.00295     0.02427
  
  S  C   4   0.04060     0.02297    -0.09794     0.20576    -0.02833    -0.04937
 PX  C   4   0.14190     0.23002     0.05463     0.00054     0.11229     0.07000
 PY  C   4   0.10776    -0.15384    -0.07217     0.02883     0.24927     0.02747
 PZ  C   4  -0.02271    -0.00145     0.00228    -0.01054    -0.01238     0.02644
  
  S  C   5  -0.16615    -0.00179    -0.01403    -0.07954    -0.01243     0.02621
 PX  C   5  -0.03963    -0.22411    -0.10376     0.14302    -0.11064    -0.10425
 PY  C   5  -0.09742    -0.08692     0.05672    -0.13767    -0.15018     0.10694
 PZ  C   5  -0.01775     0.00737     0.00815    -0.02321    -0.00560     0.02896
  
  S  C   6   0.15826    -0.01499    -0.02370     0.10653     0.05806    -0.05306
 PX  C   6  -0.14643    -0.01820    -0.02198    -0.15120     0.26093     0.03170
 PY  C   6   0.01047     0.24785     0.03393     0.03111     0.01710    -0.02052
 PZ  C   6  -0.01274     0.01701     0.00655    -0.01834     0.01468     0.01924
  
  S  C   7  -0.10251     0.02674    -0.00881     0.03174     0.07415    -0.04957
 PX  C   7   0.15293     0.00039    -0.09065     0.23924    -0.15479    -0.00555
 PY  C   7   0.11816     0.02166     0.23789    -0.11707    -0.11683    -0.09802
 PZ  C   7   0.00104    -0.00068     0.01452    -0.00404    -0.01262     0.01627
  
  S  C   8   0.10074     0.04234     0.02551    -0.06071     0.05482     0.03970
 PX  C   8  -0.16634     0.07569    -0.15688     0.04836    -0.14851     0.08783
 PY  C   8  -0.06916    -0.01039     0.21929    -0.22205    -0.18467    -0.07546
 PZ  C   8  -0.01874    -0.00135    -0.01344     0.01523    -0.00799     0.02644
  
  S  C   9  -0.14709    -0.10375    -0.20584     0.03965    -0.04742     0.07628
 PX  C   9   0.02486    -0.12848     0.04309    -0.00477     0.08998    -0.07349
 PY  C   9  -0.09199     0.21994    -0.04025     0.09426    -0.10089    -0.00158
 PZ  C   9  -0.00477    -0.01065     0.01440     0.01624     0.00420     0.01649
  
  S  C  10   0.14751    -0.14395     0.16808    -0.05183    -0.08208    -0.06363
 PX  C  10   0.03151     0.13366     0.05007    -0.02446    -0.02761     0.05382
 PY  C  10  -0.07865    -0.19715    -0.09195    -0.06811     0.14967     0.04538
 PZ  C  10  -0.00466     0.00299     0.01606     0.00004    -0.00384     0.02252
  
  S  C  11  -0.09243     0.06662    -0.01532    -0.04664     0.08470     0.01343
 PX  C  11  -0.16470    -0.04212    -0.15581     0.03111     0.10844    -0.02420
 PY  C  11  -0.07670    -0.07678     0.23255     0.08330     0.10039    -0.25520
 PZ  C  11  -0.01174    -0.00388     0.01286     0.01076    -0.00274     0.00941
  
  S  H  12  -0.05207     0.08038    -0.25864    -0.07285     0.01362     0.19297
  
  S  C  13   0.09718     0.03603     0.02591     0.03631     0.09257    -0.02358
 PX  C  13   0.16542     0.00837    -0.13514    -0.14152     0.09776     0.19036
 PY  C  13   0.13170    -0.07696     0.23510    -0.01615     0.06094    -0.12080
 PZ  C  13   0.01047    -0.01312     0.02473     0.01164     0.00508     0.03194
  
  S  H  14  -0.07216     0.00644    -0.22987     0.20724     0.06542     0.05202
  
  S  H  15  -0.21949     0.04403     0.01213    -0.10283    -0.19992     0.05902
  
  S  H  16   0.12023    -0.01734    -0.09366     0.22497    -0.00562    -0.13335
  
  S  H  17  -0.13001     0.02534     0.08834    -0.21107    -0.07645     0.14220
  
  S  H  18   0.19741     0.00904     0.00681     0.18369    -0.19662    -0.05778
  
  S  H  19   0.06207    -0.01181     0.25400    -0.22321    -0.05156    -0.08051
  
  S  H  20   0.07202    -0.03985     0.26241     0.06557     0.05349    -0.18437
  
  S  C  21   0.15616    -0.00545    -0.01993    -0.06862    -0.00333     0.06312
 PX  C  21  -0.03590     0.25009    -0.10887    -0.12902     0.08808    -0.13683
 PY  C  21  -0.09148     0.09368     0.20460     0.16992     0.18666     0.27529
 PZ  C  21   0.00138    -0.01024     0.00624     0.00708    -0.01400     0.01756
  
  S  C  22  -0.15002    -0.02798     0.07144     0.09676     0.06060     0.03019
 PX  C  22  -0.15935     0.01412    -0.01933     0.08546    -0.24334    -0.19570
 PY  C  22   0.00046    -0.25421    -0.07091    -0.04328    -0.06608    -0.10363
 PZ  C  22   0.00650     0.00919     0.01287     0.00484     0.02092     0.03810
  
  S  C  23   0.16427     0.00940    -0.07405    -0.11625     0.02893    -0.03121
 PX  C  23   0.09082    -0.19990     0.01066    -0.01593    -0.14043     0.25001
 PY  C  23   0.14759     0.16231    -0.00149    -0.01919    -0.17448     0.10534
 PZ  C  23  -0.01571     0.01910     0.02474     0.02974     0.01335     0.02406
  
  S  C  24  -0.16891    -0.02763     0.01582     0.06491     0.01170    -0.06482
 PX  C  24   0.09840     0.22592    -0.04851    -0.06397     0.14210    -0.21069
 PY  C  24  -0.01442     0.05282     0.22726     0.22384     0.06171     0.25828
 PZ  C  24  -0.03120    -0.01964     0.05790     0.06681    -0.01331     0.09482
  
  S  H  25   0.12244     0.04245    -0.21486    -0.21849    -0.09852    -0.23965
  
  S  H  26  -0.20214    -0.01420     0.01693     0.12028    -0.18415    -0.16154
  
  S  H  27   0.22019     0.03984    -0.03118    -0.07776    -0.17702     0.17994
  
  S  H  28  -0.13496    -0.07013     0.21136     0.23549    -0.00384     0.26459
  
  S  C  29  -0.04683    -0.02545     0.16126     0.15035    -0.07368    -0.02543
 PX  C  29   0.13723    -0.23568     0.00930     0.01683    -0.06386     0.17366
 PY  C  29   0.10957     0.17902    -0.03004     0.00267    -0.20342     0.14252
 PZ  C  29  -0.00237    -0.00650     0.01305     0.01544    -0.02551     0.03044
  
  S  C  30   0.05336     0.07309    -0.16206    -0.11749    -0.12202     0.03193
 PX  C  30  -0.17741     0.00694     0.02943     0.05680    -0.18948    -0.16908
 PY  C  30  -0.06611    -0.25128    -0.10843    -0.11212     0.03904    -0.09255
 PZ  C  30  -0.02228    -0.02207     0.02687     0.03006    -0.02393     0.04245




    ROOT NO.   25          26          27          28          29          30

           -14.78513   -14.72071   -14.67021   -14.54871   -13.95749   -13.53046
  
  
  S  C   1   0.00796    -0.01582    -0.03384    -0.04287    -0.04852    -0.01957
 PX  C   1   0.32564     0.00880    -0.01698    -0.03257    -0.06967     0.00895
 PY  C   1  -0.01678    -0.20985     0.10420    -0.01659    -0.14295    -0.04863
 PZ  C   1   0.03970    -0.10783    -0.05897     0.06876     0.00867     0.22625
  
  S  C   2   0.05977    -0.08840     0.03538    -0.01225     0.01583     0.01103
 PX  C   2  -0.29959    -0.03619     0.04739     0.03037     0.09403    -0.01800
 PY  C   2   0.19362    -0.12497    -0.08301    -0.23146     0.05261    -0.06889
 PZ  C   2   0.05045    -0.11800    -0.09843     0.07972     0.04481     0.25328
  
  S  C   3   0.03889     0.02833    -0.01205    -0.00649    -0.01886     0.00054
 PX  C   3  -0.10619     0.02842     0.08640     0.14775    -0.20180     0.01845
 PY  C   3   0.03808     0.19353    -0.00764     0.10721    -0.01076     0.02951
 PZ  C   3   0.03913    -0.14418    -0.13547     0.18615     0.06901     0.31342
  
  S  C   4   0.01281     0.04190    -0.03212     0.01776    -0.02489     0.01917
 PX  C   4   0.14290     0.03585    -0.13767    -0.06130    -0.17145    -0.00484
 PY  C   4  -0.00329    -0.16599    -0.01795    -0.04741    -0.18424    -0.00838
 PZ  C   4   0.02390    -0.15290    -0.14101     0.17745     0.07967     0.30326
  
  S  C   5  -0.11442    -0.00626    -0.00163    -0.00776     0.02531    -0.01542
 PX  C   5  -0.09592    -0.04073     0.12351     0.07092     0.14882     0.02577
 PY  C   5   0.18090    -0.25903     0.00697    -0.21181     0.01132    -0.06243
 PZ  C   5   0.02626    -0.10326    -0.09440     0.08954     0.04368     0.24320
  
  S  C   6  -0.00783     0.00854     0.02662     0.06547    -0.03350     0.03378
 PX  C   6  -0.28650     0.03245    -0.01599     0.07727    -0.15385    -0.01649
 PY  C   6   0.02021     0.26050    -0.08437     0.07750     0.02311     0.02616
 PZ  C   6   0.01655    -0.06293    -0.07519     0.07675     0.02507     0.22429
  
  S  C   7   0.05912     0.01462     0.02329     0.01254     0.02322    -0.00217
 PX  C   7   0.11007    -0.03131    -0.04669    -0.13458     0.20863    -0.03151
 PY  C   7  -0.03124    -0.14622     0.30199     0.12106     0.04769    -0.02729
 PZ  C   7   0.03715    -0.12618    -0.11652     0.17738     0.06287     0.15911
  
  S  C   8  -0.01435     0.04932    -0.03271    -0.00355     0.02600    -0.00136
 PX  C   8  -0.19624    -0.05688    -0.10806    -0.14091     0.18459    -0.03285
 PY  C   8   0.01615     0.16709     0.15877     0.16540     0.19179     0.03060
 PZ  C   8   0.01396    -0.14739    -0.14285     0.16129     0.05202     0.15132
  
  S  C   9   0.02277    -0.00571     0.00917    -0.01371     0.00701     0.00222
 PX  C   9   0.21682     0.08583     0.15119     0.12136    -0.18977     0.02661
 PY  C   9   0.11158     0.03822     0.05676     0.07956    -0.13185     0.00735
 PZ  C   9   0.05400    -0.14520    -0.15002     0.24622     0.02167     0.01618
  
  S  C  10  -0.03470     0.00125    -0.00607     0.00385    -0.01014     0.00512
 PX  C  10  -0.08481     0.16069    -0.26213    -0.04568    -0.20602     0.03051
 PY  C  10  -0.01760     0.08792    -0.11651    -0.03321    -0.06628     0.02328
 PZ  C  10   0.03251    -0.12904    -0.16934     0.23439     0.03723     0.01957
  
  S  C  11  -0.05403    -0.01038    -0.01552     0.00118     0.01619    -0.00203
 PX  C  11   0.08975    -0.13977     0.25811     0.02135     0.21819    -0.02663
 PY  C  11   0.00573     0.08621    -0.20515    -0.12076     0.19143     0.00022
 PZ  C  11   0.02837    -0.10297    -0.12042     0.19206     0.04660    -0.13508
  
  S  H  12   0.01476    -0.12339     0.25804     0.10066    -0.05299    -0.01231
  
  S  C  13   0.03925    -0.04965     0.03995    -0.00177    -0.03150    -0.00790
 PX  C  13   0.01472     0.07646     0.08560     0.00844     0.24874     0.00822
 PY  C  13  -0.24381    -0.11523    -0.17011    -0.18193     0.08007    -0.01838
 PZ  C  13   0.01267    -0.10739    -0.13620     0.18842     0.03946    -0.14141
  
  S  H  14   0.09297     0.10534    -0.23601    -0.14124     0.06491     0.00678
  
  S  H  15  -0.14462     0.16204    -0.08550     0.00076     0.12751     0.00436
  
  S  H  16  -0.26030     0.05716     0.10911     0.17432     0.00653     0.01885
  
  S  H  17   0.14151    -0.19636    -0.05035    -0.19844    -0.03659    -0.05676
  
  S  H  18   0.25609    -0.01339     0.03325    -0.04183     0.12920     0.01444
  
  S  H  19   0.08248     0.17475     0.15725     0.17312     0.08839     0.02932
  
  S  H  20  -0.17108    -0.13916    -0.15114    -0.13366    -0.06115    -0.02505
  
  S  C  21  -0.01094     0.06623    -0.05641     0.01916    -0.01206    -0.00641
 PX  C  21  -0.07360    -0.07022    -0.04259    -0.02533     0.19213    -0.06866
 PY  C  21  -0.12216    -0.06985     0.11126    -0.04085     0.12467     0.03445
 PZ  C  21   0.02215    -0.05103    -0.08712     0.14462     0.00899    -0.26296
  
  S  C  22   0.02577    -0.00312     0.04719    -0.00611     0.05134     0.00978
 PX  C  22   0.02680    -0.15019     0.05598    -0.00919    -0.24052     0.01325
 PY  C  22   0.16961     0.15427    -0.08427     0.06874    -0.05626    -0.04206
 PZ  C  22   0.00749    -0.03630    -0.06636     0.11504     0.04285    -0.25213
  
  S  C  23  -0.01233     0.01763    -0.04134    -0.00431     0.06223    -0.01738
 PX  C  23  -0.04004     0.18424    -0.10643     0.06445    -0.05058    -0.00758
 PY  C  23  -0.19056    -0.12473     0.02397    -0.04499    -0.11876     0.05342
 PZ  C  23   0.02006    -0.05610    -0.04821     0.11668     0.02294    -0.25446
  
  S  C  24   0.07486     0.02032     0.01688     0.01269    -0.02476     0.00993
 PX  C  24   0.00629    -0.19129     0.07256    -0.04189     0.09216    -0.05549
 PY  C  24   0.00686     0.02327     0.10470     0.00057     0.05583     0.01874
 PZ  C  24   0.02698    -0.02987    -0.07460     0.16108     0.00569    -0.26849
  
  S  H  25   0.05552     0.05155    -0.12556     0.02934    -0.01816    -0.05888
  
  S  H  26   0.04313    -0.13048     0.07610    -0.01389    -0.20974     0.03000
  
  S  H  27  -0.17899    -0.00646    -0.04846    -0.01259    -0.09391     0.04027
  
  S  H  28   0.03988     0.10261     0.04181     0.04738    -0.01169    -0.00016
  
  S  C  29  -0.02672    -0.05086    -0.00303    -0.04591    -0.01836     0.00774
 PX  C  29   0.07137     0.10848     0.02964     0.04972    -0.19297     0.06857
 PY  C  29  -0.09471    -0.08847     0.05430     0.04031    -0.23184    -0.00547
 PZ  C  29   0.02581    -0.09751    -0.13135     0.21881     0.01239    -0.28946
  
  S  C  30  -0.04345    -0.02212     0.02209     0.02392     0.00609    -0.00671
 PX  C  30  -0.05708    -0.06322    -0.08359    -0.01848    -0.24033     0.00904
 PY  C  30   0.07196     0.14117    -0.08536    -0.00055     0.00861     0.05210
 PZ  C  30   0.02562    -0.08733    -0.14334     0.22289     0.00843    -0.29485




    ROOT NO.   31          32          33          34          35          36

           -13.03431   -12.90292   -12.00677   -11.83278   -11.67156   -11.51542
  
  
  S  C   1  -0.00065    -0.00864     0.01270     0.00869    -0.01691     0.00716
 PX  C   1   0.24844     0.07081    -0.10306     0.01155    -0.13428    -0.05142
 PY  C   1   0.11090    -0.22760     0.18954    -0.03893    -0.07247     0.10456
 PZ  C   1   0.00270    -0.06436    -0.07498    -0.29844     0.08836    -0.04551
  
  S  C   2   0.00902    -0.02619    -0.01845     0.00417     0.03009    -0.03171
 PX  C   2  -0.25026    -0.05453     0.07366     0.02080     0.15134     0.02543
 PY  C   2  -0.10957     0.14526    -0.15557     0.12980     0.09519    -0.11695
 PZ  C   2  -0.03226    -0.01270    -0.10901    -0.20518     0.08324    -0.07377
  
  S  C   3  -0.03354     0.00692     0.00911    -0.00068    -0.00419     0.00007
 PX  C   3   0.21407    -0.03998    -0.11335     0.00421    -0.19257    -0.12580
 PY  C   3   0.10137    -0.08354     0.22319    -0.13787    -0.08298     0.22002
 PZ  C   3  -0.01385    -0.01415    -0.04994    -0.06648     0.00324    -0.02797
  
  S  C   4   0.02199    -0.00125     0.00655    -0.00754     0.02758     0.00267
 PX  C   4  -0.19314    -0.03930     0.17443    -0.01339     0.19229     0.13518
 PY  C   4  -0.05523     0.03825    -0.19368     0.13089     0.10924    -0.21402
 PZ  C   4  -0.01760    -0.03391    -0.02204    -0.05685     0.00269     0.02261
  
  S  C   5  -0.00858    -0.01272    -0.02763     0.01237    -0.04031    -0.03774
 PX  C   5   0.21409     0.02349    -0.15218    -0.00518    -0.17329    -0.11072
 PY  C   5   0.10267    -0.18884     0.16986    -0.06443    -0.07647     0.10251
 PZ  C   5  -0.03281    -0.05358    -0.03587    -0.21895     0.07553     0.00713
  
  S  C   6   0.01155    -0.00806    -0.00587    -0.02373     0.02114    -0.00296
 PX  C   6  -0.20117    -0.07178     0.10514     0.01069     0.10941     0.05230
 PY  C   6  -0.10500     0.24079    -0.17966     0.09664     0.08037    -0.10048
 PZ  C   6  -0.03831    -0.03594    -0.07811    -0.28503     0.11243    -0.03168
  
  S  C   7   0.07313    -0.01541    -0.01700     0.01918     0.00202    -0.05798
 PX  C   7  -0.17261     0.00346     0.11079     0.00431     0.20116     0.08959
 PY  C   7  -0.04523    -0.16041    -0.03243     0.09306     0.11692    -0.19550
 PZ  C   7  -0.02268     0.01348     0.03641     0.13684    -0.04166    -0.00213
  
  S  C   8  -0.07219     0.00934    -0.00968     0.01014    -0.02018    -0.05127
 PX  C   8   0.06195    -0.13601    -0.01269    -0.03305    -0.23457    -0.11187
 PY  C   8   0.09302     0.05473     0.08177    -0.08662    -0.10594     0.15796
 PZ  C   8  -0.00831    -0.00951     0.03551     0.15628    -0.04657     0.04767
  
  S  C   9   0.05728     0.03402    -0.00224    -0.00176     0.00101     0.01077
 PX  C   9  -0.00349     0.13930     0.01860    -0.01533     0.24831     0.13836
 PY  C   9  -0.01176    -0.24526     0.08930     0.08242     0.12143    -0.27617
 PZ  C   9  -0.00784     0.05256     0.10616     0.31817    -0.05088     0.10276
  
  S  C  10  -0.04795     0.02512    -0.00218     0.00138    -0.00163    -0.00924
 PX  C  10   0.01196    -0.12279     0.03957    -0.04777    -0.20938    -0.15226
 PY  C  10   0.09267     0.25463    -0.05349    -0.10356    -0.10400     0.27738
 PZ  C  10  -0.00730     0.04882     0.11838     0.29639    -0.11207     0.03379
  
  S  C  11   0.07843    -0.01241     0.01953     0.00565    -0.00493    -0.04833
 PX  C  11   0.03913     0.10358    -0.02711     0.02939     0.21493     0.11985
 PY  C  11   0.05910    -0.09250     0.14031     0.02042     0.09474    -0.15707
 PZ  C  11   0.00290     0.05603     0.09600     0.14330    -0.05518    -0.01240
  
  S  H  12   0.00347     0.11494    -0.13689    -0.00655     0.01768     0.19673
  
  S  C  13  -0.08441     0.00549     0.02138    -0.00012     0.00566    -0.05156
 PX  C  13  -0.13977     0.02038     0.08111    -0.07103    -0.23877    -0.08142
 PY  C  13   0.02945     0.12174    -0.13467    -0.06358    -0.12431     0.17216
 PZ  C  13  -0.00040     0.05770     0.05223     0.15125    -0.04825     0.08052
  
  S  H  14  -0.00649     0.12680     0.07827    -0.07777    -0.00482     0.21203
  
  S  H  15  -0.22524     0.16024    -0.09852     0.06276     0.12382    -0.05692
  
  S  H  16  -0.01745    -0.15396     0.18232    -0.07691    -0.00705     0.12326
  
  S  H  17  -0.01854    -0.18201     0.22309    -0.06915     0.00261     0.14897
  
  S  H  18   0.20486     0.07870    -0.11041     0.00613    -0.11289    -0.05595
  
  S  H  19   0.01842     0.10957     0.07664    -0.06992     0.00590     0.19272
  
  S  H  20   0.04904     0.09226    -0.15099    -0.01506     0.01265     0.19084
  
  S  C  21   0.01439    -0.01361     0.02694    -0.02027    -0.02790    -0.03745
 PX  C  21   0.16658    -0.12975    -0.12218     0.06883     0.18579     0.09307
 PY  C  21   0.14396     0.16602     0.15097    -0.01396     0.08516    -0.07805
 PZ  C  21  -0.00430     0.03363    -0.01451    -0.23142     0.02480    -0.10035
  
  S  C  22  -0.01892    -0.00870     0.00412     0.01739     0.00416     0.00289
 PX  C  22  -0.15251     0.18426     0.07205    -0.09164    -0.11718    -0.05470
 PY  C  22  -0.16204    -0.21896    -0.16332     0.01156    -0.09327     0.07273
 PZ  C  22   0.01989     0.01305    -0.04712    -0.29034     0.07173    -0.10414
  
  S  C  23   0.00450    -0.02706    -0.01181     0.00207    -0.01256     0.00535
 PX  C  23   0.22342    -0.14540    -0.07092     0.04730     0.17528     0.03694
 PY  C  23   0.17975     0.23879     0.16046    -0.03053     0.08163    -0.07676
 PZ  C  23  -0.02324     0.01634    -0.07279    -0.29059     0.04997    -0.06953
  
  S  C  24  -0.02902    -0.01641     0.02762     0.00909     0.02035    -0.02745
 PX  C  24  -0.22418     0.11797     0.01634    -0.08892    -0.18810    -0.01799
 PY  C  24  -0.14949    -0.14717    -0.17279     0.04715    -0.13683     0.11531
 PZ  C  24   0.00523    -0.03069    -0.09942    -0.19395     0.06568    -0.00604
  
  S  H  25  -0.02890    -0.21216    -0.19442     0.04696     0.01084     0.11790
  
  S  H  26  -0.16607     0.16994     0.07046    -0.07047    -0.12837    -0.04501
  
  S  H  27   0.27035     0.12308     0.10299     0.00609     0.16175    -0.04430
  
  S  H  28  -0.03397    -0.19049    -0.17216     0.05583    -0.00683     0.10841
  
  S  C  29  -0.02982     0.00700    -0.00564     0.00579     0.00917     0.00126
 PX  C  29  -0.13986     0.13582     0.14223    -0.07772    -0.19452    -0.11285
 PY  C  29  -0.04185    -0.03031    -0.24031     0.00588    -0.09386     0.19889
 PZ  C  29   0.00326     0.06388     0.04382    -0.05522    -0.01687    -0.04959
  
  S  C  30   0.04710     0.00288    -0.00555    -0.00270    -0.00318     0.00147
 PX  C  30   0.19163    -0.00980    -0.10713     0.06260     0.23543     0.11632
 PY  C  30   0.12709     0.09323     0.25829    -0.01712     0.10841    -0.19647
 PZ  C  30   0.03046     0.04453     0.01202    -0.03684     0.03375     0.00923




    ROOT NO.   37          38          39          40          41          42

           -10.67654    -9.86363    -9.74483    -8.38723    -8.05298    -6.72891
  
  
  S  C   1  -0.00305    -0.01463    -0.00379     0.00719    -0.00911     0.00536
 PX  C   1  -0.01820    -0.01023    -0.01831     0.01999    -0.00625     0.01422
 PY  C   1   0.00362    -0.05061     0.00177     0.01584    -0.03448     0.01683
 PZ  C   1   0.07867     0.37015     0.10808    -0.21569     0.26365    -0.19702
  
  S  C   2   0.01174     0.00853     0.01935    -0.02293    -0.00144    -0.01665
 PX  C   2   0.01072    -0.00408     0.00584    -0.00220    -0.00235     0.00017
 PY  C   2  -0.03325    -0.01282    -0.04990     0.04564     0.00326     0.02457
 PZ  C   2   0.17891     0.14985     0.30453    -0.35821    -0.00065    -0.24138
  
  S  C   3  -0.00364    -0.00314    -0.00001    -0.00170    -0.00201     0.00022
 PX  C   3  -0.02261     0.01689    -0.01262     0.00542     0.01225    -0.00020
 PY  C   3   0.01757     0.00050     0.01771    -0.01681     0.00534    -0.01178
 PZ  C   3   0.19711    -0.23789     0.28165    -0.07586    -0.32179     0.13342
  
  S  C   4   0.00686     0.00154     0.00143     0.00031    -0.00139    -0.00210
 PX  C   4   0.01858    -0.02794     0.00709    -0.00780    -0.01599    -0.01137
 PY  C   4  -0.01579    -0.00828    -0.02108     0.01629    -0.01237     0.00371
 PZ  C   4  -0.21016    -0.29884    -0.20926     0.07075    -0.33558    -0.13065
  
  S  C   5   0.00299     0.00546     0.01191    -0.01159     0.00427    -0.00662
 PX  C   5  -0.02307     0.02430    -0.01962     0.01859     0.01039     0.01471
 PY  C   5   0.01900    -0.00107     0.02244    -0.01250     0.00554    -0.00305
 PZ  C   5  -0.18775     0.07756    -0.34423     0.36190    -0.03075     0.24240
  
  S  C   6  -0.00811     0.02372    -0.02001     0.01863     0.01699     0.01399
 PX  C   6   0.01304    -0.02028     0.01404    -0.01364    -0.01241    -0.01149
 PY  C   6  -0.00672    -0.01649     0.00042    -0.01044    -0.01362    -0.01345
 PZ  C   6  -0.08903     0.33715    -0.22519     0.23115     0.24945     0.19613
  
  S  C   7  -0.01091     0.00442    -0.00618     0.00196     0.00055     0.00186
 PX  C   7   0.00570    -0.00116    -0.00175    -0.01112    -0.00329    -0.01507
 PY  C   7  -0.02410     0.01043    -0.01055    -0.00613    -0.00272    -0.00678
 PZ  C   7   0.32059    -0.18369     0.26342     0.18735     0.01948     0.39220
  
  S  C   8  -0.00393     0.00501     0.00395     0.00655    -0.00258     0.01415
 PX  C   8   0.00343     0.03273     0.02300     0.00552     0.01193     0.02455
 PY  C   8  -0.01194    -0.00316    -0.00353    -0.01510     0.00878    -0.01789
 PZ  C   8  -0.32145    -0.23810    -0.20882    -0.17674     0.02198    -0.38206
  
  S  C   9   0.00693     0.00291     0.00002    -0.00122     0.00385     0.00227
 PX  C   9   0.04316    -0.01618    -0.00681     0.02033    -0.03970     0.00122
 PY  C   9  -0.01550     0.00527     0.00313     0.00204    -0.01149     0.00785
 PZ  C   9  -0.25268     0.00145    -0.03632    -0.22358     0.36693    -0.01491
  
  S  C  10  -0.00150    -0.00161    -0.00027     0.00374     0.00387    -0.00390
 PX  C  10  -0.04065     0.00656     0.00659    -0.01448    -0.01713     0.00171
 PY  C  10   0.02014    -0.00798    -0.00432    -0.00100    -0.00247    -0.00653
 PZ  C  10   0.28173     0.01104     0.03294     0.24551     0.35643     0.01484
  
  S  C  11  -0.00071     0.00465    -0.00077     0.00501    -0.00117    -0.00754
 PX  C  11   0.00890    -0.01224     0.00157    -0.00601     0.00093     0.01226
 PY  C  11  -0.02909    -0.00577     0.01566    -0.00450    -0.00115     0.00937
 PZ  C  11   0.34873     0.19481    -0.18685     0.24629    -0.02214    -0.36938
  
  S  H  12   0.02483    -0.00347    -0.01031    -0.00377     0.00061     0.00499
  
  S  C  13  -0.00688     0.00240     0.00606     0.00717    -0.00903    -0.00200
 PX  C  13  -0.01653     0.00216     0.00491     0.01034     0.00131    -0.01923
 PY  C  13   0.03531    -0.01424    -0.00714     0.01787     0.00471    -0.02200
 PZ  C  13  -0.32657     0.23991     0.13673    -0.25337     0.00226     0.36552
  
  S  H  14   0.02231    -0.00857     0.00681    -0.00134     0.00037    -0.00327
  
  S  H  15  -0.00215     0.00927    -0.00363    -0.00251     0.00688    -0.00347
  
  S  H  16   0.01470    -0.00818     0.01154     0.00079    -0.00447     0.00776
  
  S  H  17   0.01752    -0.00982     0.01193    -0.00008    -0.00294     0.00534
  
  S  H  18  -0.00998    -0.00005    -0.00296     0.00001    -0.00459    -0.00191
  
  S  H  19   0.00202    -0.00822    -0.00368    -0.00865     0.00043    -0.01231
  
  S  H  20   0.02922    -0.00637    -0.00520     0.00332     0.00054     0.00145
  
  S  C  21   0.00621    -0.00732    -0.01688    -0.01835    -0.00060     0.01143
 PX  C  21   0.02946    -0.00477    -0.01755    -0.00979    -0.00203     0.00559
 PY  C  21  -0.00115    -0.00279    -0.00702    -0.00842    -0.00379     0.00495
 PZ  C  21   0.21721    -0.16943    -0.33403    -0.32592     0.00899     0.20024
  
  S  C  22   0.00304     0.01368    -0.00237     0.00232    -0.01011    -0.00481
 PX  C  22  -0.01175    -0.02961    -0.00111    -0.01328     0.02099     0.01399
 PY  C  22   0.01823    -0.01052    -0.01718    -0.01389     0.01179     0.00884
 PZ  C  22   0.10142    -0.35111    -0.16315    -0.21385     0.26543     0.17752
  
  S  C  23  -0.00558     0.00842     0.00473     0.00054    -0.00699     0.00220
 PX  C  23   0.01661    -0.03569     0.00259     0.01487     0.02888    -0.01512
 PY  C  23  -0.01791    -0.00449     0.01542     0.00920    -0.00153    -0.00381
 PZ  C  23  -0.12954    -0.28850     0.23340     0.24107     0.25507    -0.18783
  
  S  C  24   0.00172    -0.00010    -0.00574    -0.00605    -0.00092     0.00473
 PX  C  24  -0.04678     0.00893     0.04870     0.03428    -0.00918    -0.01819
 PY  C  24   0.05744     0.01621    -0.06832    -0.05156    -0.00045     0.02583
 PZ  C  24  -0.22408    -0.06273     0.35041     0.32395    -0.00085    -0.19664
  
  S  H  25   0.01362     0.00200     0.00214     0.00925     0.00263    -0.00698
  
  S  H  26  -0.01736    -0.00780     0.00872     0.00026     0.00680     0.00294
  
  S  H  27  -0.00572    -0.01384     0.01135     0.01148     0.00678    -0.00743
  
  S  H  28   0.03856    -0.00100    -0.02897    -0.01100     0.00452     0.00058
  
  S  C  29   0.00692    -0.00343    -0.00604    -0.00527     0.00347     0.00406
 PX  C  29  -0.03388     0.00172     0.01834     0.00766     0.00522    -0.00297
 PY  C  29   0.02837    -0.00433    -0.01393    -0.00540     0.01066     0.00498
 PZ  C  29   0.23249     0.22981    -0.25035    -0.02923    -0.35651    -0.15160
  
  S  C  30  -0.00933    -0.00250     0.00818     0.00382     0.00666    -0.00432
 PX  C  30   0.04232    -0.02535    -0.01821     0.00071     0.01562    -0.00237
 PY  C  30  -0.02839    -0.01694     0.01754     0.01147     0.01279    -0.00999
 PZ  C  30  -0.22525     0.28998     0.19490     0.00320    -0.34327     0.15664




    ROOT NO.   43          44          45          46          47          48

            -1.05819     0.17192     0.38001     1.30621     1.33629     1.89945
  
  
  S  C   1  -0.00493    -0.00031     0.00319    -0.00702     0.00711    -0.01032
 PX  C   1   0.00186    -0.01391    -0.00632     0.01802    -0.00571    -0.00881
 PY  C   1  -0.02617    -0.01800     0.03011     0.00032    -0.03308     0.01052
 PZ  C   1   0.20181     0.25199    -0.22582    -0.14294     0.37742    -0.07477
  
  S  C   2  -0.01852     0.00688     0.03134    -0.01642    -0.03243     0.03396
 PX  C   2  -0.00149     0.00066     0.00314    -0.00262    -0.00143     0.00458
 PY  C   2   0.02554     0.00258    -0.03558     0.01452     0.03643    -0.01547
 PZ  C   2  -0.23585     0.01868     0.33886    -0.14287    -0.31647     0.17834
  
  S  C   3   0.00845    -0.00580    -0.01855     0.01169     0.01730    -0.03363
 PX  C   3   0.00192     0.00841     0.00675    -0.01731    -0.00974     0.00888
 PY  C   3  -0.00116     0.00455     0.00940    -0.00971    -0.00806     0.00635
 PZ  C   3  -0.13713    -0.33331    -0.05713     0.36826    -0.01254    -0.21138
  
  S  C   4   0.00245     0.00145     0.00048    -0.00252    -0.02469     0.03300
 PX  C   4   0.00098     0.00913    -0.00287    -0.00445     0.00490     0.00231
 PY  C   4   0.00028     0.00504    -0.00814     0.00269     0.00603    -0.00467
 PZ  C   4  -0.13278     0.33001    -0.09706    -0.00705     0.37074    -0.21153
  
  S  C   5  -0.00134     0.01027     0.00091    -0.01025     0.02645    -0.02287
 PX  C   5  -0.00731    -0.00671     0.01067    -0.00006    -0.00393    -0.00398
 PY  C   5   0.01477    -0.00981    -0.02108     0.02882     0.00154    -0.01332
 PZ  C   5  -0.25011     0.01371     0.35500    -0.32779    -0.14890     0.19449
  
  S  C   6   0.01993    -0.02631    -0.02379     0.04731    -0.02494     0.00044
 PX  C   6  -0.00715     0.01268     0.00824    -0.01842     0.00400     0.00921
 PY  C   6  -0.01002     0.01572     0.01075    -0.02254     0.00386     0.00995
 PZ  C   6   0.20109    -0.26722    -0.20539     0.37698    -0.13227    -0.09538
  
  S  C   7  -0.00519    -0.00002     0.00576     0.00210    -0.00303     0.02835
 PX  C   7  -0.01136     0.00088     0.00113     0.01605     0.00757    -0.01202
 PY  C   7  -0.01219     0.00021     0.00440     0.01041     0.00283     0.00092
 PZ  C   7   0.38774    -0.02418    -0.18182    -0.30006    -0.00742     0.32356
  
  S  C   8  -0.01393     0.00097     0.00890    -0.00112     0.02655    -0.03524
 PX  C   8  -0.01909    -0.00211     0.01489     0.00178     0.01371    -0.01925
 PY  C   8   0.01423    -0.00120    -0.00428    -0.00084    -0.01554     0.01562
 PZ  C   8   0.38491     0.00007    -0.17826    -0.01166    -0.30459     0.31495
  
  S  C   9   0.00290    -0.00551    -0.01171     0.00016    -0.01435     0.03207
 PX  C   9  -0.00594     0.03019    -0.02175    -0.00413     0.00706     0.01940
 PY  C   9  -0.00607     0.00846    -0.00889    -0.00463    -0.00052    -0.00127
 PZ  C   9  -0.02112    -0.34796     0.26357     0.01073     0.02078    -0.27612
  
  S  C  10   0.00520     0.00359     0.00085    -0.00902    -0.00419    -0.03851
 PX  C  10  -0.00056    -0.02191    -0.01283    -0.00716    -0.00617     0.00869
 PY  C  10   0.00237    -0.00472     0.00098     0.00009    -0.00084     0.00039
 PZ  C  10  -0.02029     0.37664     0.22244     0.01653     0.00959    -0.28460
  
  S  C  11  -0.00530    -0.00364     0.00548     0.02046     0.01038     0.04436
 PX  C  11   0.01579     0.00247     0.01201    -0.00493     0.00532    -0.01033
 PY  C  11   0.01397    -0.00110     0.01372    -0.00209     0.00770    -0.00012
 PZ  C  11  -0.35716    -0.00239    -0.23961     0.26741    -0.02327     0.33763
  
  S  H  12   0.00282     0.00474     0.00005    -0.00975    -0.00280    -0.02245
  
  S  C  13   0.00131     0.00360     0.01048     0.00463     0.00926    -0.02409
 PX  C  13   0.02244     0.00001     0.01327     0.00332    -0.01385    -0.01184
 PY  C  13   0.02473     0.00017     0.01230     0.00190    -0.01963    -0.01130
 PZ  C  13  -0.35971    -0.02377    -0.23760    -0.01652     0.26828     0.33068
  
  S  H  14   0.00216     0.00158    -0.00005    -0.00032     0.00286    -0.01388
  
  S  H  15   0.00429     0.00107    -0.00288     0.00324    -0.00203     0.00681
  
  S  H  16   0.00706    -0.00689    -0.01638     0.01179     0.02064    -0.02076
  
  S  H  17  -0.00265    -0.00803     0.00497     0.00281    -0.01591     0.01451
  
  S  H  18  -0.01343     0.01585     0.01731    -0.03355     0.01639     0.00131
  
  S  H  19   0.00523     0.00144    -0.00156    -0.00104    -0.01145     0.01990
  
  S  H  20  -0.00136     0.00196    -0.00312     0.00020     0.00044     0.01532
  
  S  C  21   0.01178     0.00667     0.02614     0.02804     0.02506     0.04357
 PX  C  21   0.00810    -0.00079     0.00975     0.00109     0.00668    -0.00447
 PY  C  21   0.00553     0.00223     0.00641     0.00526     0.00158     0.00210
 PZ  C  21   0.19852     0.01689     0.34319     0.17480     0.32192     0.21751
  
  S  C  22   0.00232    -0.01530    -0.00473    -0.02737     0.00532    -0.02369
 PX  C  22  -0.00948     0.01981    -0.01040     0.01278    -0.02219    -0.00083
 PY  C  22  -0.00749     0.00466    -0.00571     0.00109    -0.00075     0.00409
 PZ  C  22  -0.19291     0.23571    -0.25702     0.07335    -0.36978    -0.11453
  
  S  C  23   0.00557     0.01244     0.00250     0.01512    -0.01545     0.00732
 PX  C  23  -0.02055    -0.02366    -0.02199    -0.03181     0.00779    -0.01118
 PY  C  23   0.00525    -0.00060     0.00654     0.00128     0.00322    -0.00117
 PZ  C  23  -0.18288    -0.27291    -0.21369    -0.35712     0.10854    -0.09542
  
  S  C  24  -0.00552    -0.00066    -0.00918    -0.01643    -0.00014    -0.02208
 PX  C  24   0.02374     0.00420     0.03346     0.03069     0.01285     0.02227
 PY  C  24  -0.02165    -0.00378    -0.04081    -0.03911    -0.02263    -0.02281
 PZ  C  24   0.19567     0.03028     0.33299     0.32177     0.14695     0.20560
  
  S  H  25  -0.00848    -0.00452    -0.01528    -0.01484    -0.01344    -0.02315
  
  S  H  26  -0.00137     0.01013     0.00524     0.02091    -0.00061     0.01904
  
  S  H  27  -0.00154    -0.00879     0.00493    -0.00229     0.01572     0.00211
  
  S  H  28   0.00061    -0.00171     0.00915     0.01619     0.00720     0.02034
  
  S  C  29  -0.00469     0.00011    -0.01616    -0.02268    -0.01820    -0.04681
 PX  C  29  -0.00837     0.00572    -0.00916     0.00302    -0.01214     0.00072
 PY  C  29  -0.01085     0.00842    -0.00621     0.00706    -0.00236     0.00602
 PZ  C  29   0.16531    -0.35153    -0.00743    -0.35927     0.02947    -0.23328
  
  S  C  30   0.00150    -0.00389     0.00063     0.00520    -0.00198     0.02628
 PX  C  30  -0.01321    -0.01235     0.00074     0.00025     0.02054     0.00944
 PY  C  30  -0.00515    -0.01401     0.00254    -0.00222     0.01313     0.00260
 PZ  C  30   0.15535     0.34556    -0.04829     0.02000    -0.35547    -0.22665




    ROOT NO.   49          50          51          52          53          54

             2.36724     2.47480     2.82981     3.13924     3.28568     3.33059
  
  
  S  C   1  -0.09431     0.09167    -0.19798     0.06156    -0.01599     0.28718
 PX  C   1   0.00011     0.02235    -0.00294    -0.00665     0.07219     0.01478
 PY  C   1   0.00439     0.02125    -0.02994    -0.01143    -0.06712    -0.00970
 PZ  C   1  -0.27121    -0.16459     0.01442     0.22541     0.06795    -0.04033
  
  S  C   2   0.11889    -0.11284     0.19450    -0.06108    -0.10052    -0.23703
 PX  C   2   0.00621    -0.01802    -0.00898     0.01804    -0.04800     0.04839
 PY  C   2   0.00697    -0.06329     0.04764     0.03958    -0.02694    -0.03015
 PZ  C   2   0.19291     0.14112    -0.01909    -0.23902    -0.06185     0.06333
  
  S  C   3  -0.13937     0.19859    -0.23566    -0.01933     0.13087     0.15743
 PX  C   3   0.00594     0.02314     0.05547    -0.03402     0.11882    -0.01022
 PY  C   3  -0.01152     0.03601    -0.03438    -0.04048    -0.09065    -0.08913
 PZ  C   3  -0.07045    -0.04702    -0.03657     0.30270     0.07779    -0.03362
  
  S  C   4   0.15373    -0.19530     0.27732     0.04881     0.19229     0.07060
 PX  C   4   0.00285    -0.01765    -0.03831     0.00978    -0.11373     0.04055
 PY  C   4  -0.00665     0.00448    -0.03774     0.01617     0.07398     0.12853
 PZ  C   4   0.09305    -0.00676     0.06018    -0.29376    -0.07472     0.02977
  
  S  C   5  -0.12835     0.13891    -0.26804    -0.01779    -0.28576     0.03581
 PX  C   5  -0.02418     0.03908    -0.02818    -0.02248    -0.00723    -0.06610
 PY  C   5   0.02636     0.01085     0.01280    -0.03844     0.00236    -0.02911
 PZ  C   5  -0.21382    -0.08275    -0.01972     0.22838     0.06889    -0.03262
  
  S  C   6   0.13192    -0.07593     0.22301    -0.06673     0.21332    -0.14367
 PX  C   6   0.00394    -0.03260     0.03775     0.01766     0.01454    -0.02419
 PY  C   6  -0.00580    -0.02303     0.01727     0.03737     0.08257     0.08261
 PZ  C   6   0.25614     0.15149    -0.03639    -0.20590    -0.09890     0.06118
  
  S  C   7   0.11748    -0.21450     0.10820     0.06901    -0.29111    -0.06990
 PX  C   7  -0.00788     0.00193    -0.08146     0.01924    -0.04583     0.07047
 PY  C   7   0.02620    -0.05074    -0.02206     0.02316    -0.07430     0.03659
 PZ  C   7  -0.13068    -0.04961     0.04247    -0.14346    -0.05061    -0.01383
  
  S  C   8  -0.13502     0.19363    -0.14541    -0.07991    -0.10388    -0.28322
 PX  C   8  -0.00858     0.02238     0.06747    -0.02879     0.05734    -0.09850
 PY  C   8   0.02952    -0.02299     0.05975     0.00481     0.04380    -0.02034
 PZ  C   8   0.09394     0.12647    -0.06446     0.13459     0.03144    -0.01045
  
  S  C   9   0.12827    -0.23116     0.01853     0.10668    -0.04065     0.37063
 PX  C   9   0.01627    -0.00159    -0.08013    -0.00552    -0.07410    -0.01676
 PY  C   9  -0.00178     0.03143    -0.03142    -0.02283     0.14683     0.03422
 PZ  C   9  -0.28415    -0.20114     0.04889     0.00289    -0.02185    -0.06098
  
  S  C  10  -0.12023     0.25718     0.01282    -0.09264     0.35602    -0.10385
 PX  C  10  -0.00253    -0.01133     0.08070     0.02558     0.01811     0.07176
 PY  C  10  -0.01589     0.01847     0.02804    -0.01783    -0.06226    -0.15382
 PZ  C  10   0.31399     0.13752    -0.05023     0.00624     0.01528     0.06868
  
  S  C  11   0.09376    -0.24307    -0.15167     0.01679    -0.26443    -0.04803
 PX  C  11  -0.01204     0.03028    -0.06468    -0.04543     0.10444    -0.06295
 PY  C  11   0.02174    -0.04120    -0.06829    -0.02310     0.01440    -0.03569
 PZ  C  11  -0.16820    -0.03447     0.01033     0.13138     0.02081    -0.07856
  
  S  H  12  -0.04510     0.13043     0.08369    -0.00861     0.12891    -0.00720
  
  S  C  13  -0.10740     0.19980     0.10880    -0.03642    -0.11099    -0.25957
 PX  C  13  -0.00899     0.01542     0.08544     0.04528    -0.06060     0.05509
 PY  C  13   0.01764    -0.04883     0.02104     0.03712    -0.02029     0.07357
 PZ  C  13   0.13218     0.11131     0.01514    -0.14014    -0.00343     0.08979
  
  S  H  14  -0.06186     0.11288    -0.06982    -0.04844     0.13629     0.01143
  
  S  H  15   0.05841    -0.06637     0.13220    -0.03278    -0.00102    -0.20694
  
  S  H  16  -0.06949     0.05064    -0.11181     0.04977     0.02973     0.11762
  
  S  H  17   0.06910    -0.08510     0.16857     0.01800     0.16638    -0.06039
  
  S  H  18  -0.09158     0.04455    -0.14330     0.05368    -0.14851     0.07827
  
  S  H  19   0.07234    -0.10913     0.08452     0.04627     0.01982     0.16008
  
  S  H  20   0.05673    -0.10461    -0.06959     0.02134     0.02876     0.12512
  
  S  C  21   0.07632    -0.16755    -0.25273    -0.05773     0.02357    -0.23285
 PX  C  21  -0.02139     0.06347     0.05147     0.00155     0.05878     0.00834
 PY  C  21  -0.00625    -0.00155    -0.00589    -0.02128     0.03310    -0.01129
 PZ  C  21   0.18863     0.14723    -0.03366     0.25025     0.03714    -0.05508
  
  S  C  22  -0.01783     0.12881     0.18491     0.11476    -0.11364     0.19275
 PX  C  22  -0.00886    -0.03745    -0.03071    -0.02615     0.02540    -0.00617
 PY  C  22   0.01240    -0.00843    -0.00878     0.02795    -0.07897    -0.03287
 PZ  C  22  -0.27947    -0.15057     0.07895    -0.22525    -0.04614     0.08109
  
  S  C  23   0.01579    -0.11984    -0.16424    -0.11962     0.24029    -0.06465
 PX  C  23   0.01611     0.02596    -0.00381     0.01333    -0.01207    -0.06715
 PY  C  23  -0.00378     0.01789     0.02739     0.01485     0.00552     0.04508
 PZ  C  23   0.29748     0.12550    -0.09979     0.22709     0.04174    -0.09055
  
  S  C  24  -0.03780     0.16004     0.18654     0.10957    -0.22781    -0.04257
 PX  C  24  -0.00542    -0.03116     0.00000    -0.00389    -0.01945     0.06347
 PY  C  24   0.05042    -0.04140    -0.06066     0.03037     0.03357     0.01208
 PZ  C  24  -0.22613    -0.07932     0.09954    -0.24446    -0.02959     0.10979
  
  S  H  25  -0.04592     0.09379     0.15782     0.03531    -0.04850     0.14040
  
  S  H  26   0.00958    -0.08241    -0.11315    -0.07325     0.05204    -0.12606
  
  S  H  27  -0.01758     0.07664     0.10872     0.06693    -0.16983     0.03607
  
  S  H  28   0.01165    -0.09376    -0.11184    -0.08483     0.12179     0.00780
  
  S  C  29  -0.10168     0.25361     0.29358     0.05316     0.06222     0.15200
 PX  C  29   0.00431    -0.03075     0.01970     0.01441    -0.02937     0.08740
 PY  C  29  -0.00009     0.00726     0.04226     0.03592    -0.13817    -0.04746
 PZ  C  29  -0.01525    -0.05261     0.03827    -0.28548    -0.03606     0.10681
  
  S  C  30   0.09483    -0.23133    -0.24982    -0.05711     0.18133     0.08520
 PX  C  30  -0.00789    -0.00386    -0.05965    -0.05054    -0.01120    -0.11195
 PY  C  30  -0.02353     0.04271     0.04772    -0.02283     0.07854     0.06143
 PZ  C  30   0.04359     0.00037    -0.06738     0.29148     0.02448    -0.12819




    ROOT NO.   55          56          57          58          59          60

             3.59042     3.63208     3.76163     3.85964     4.18318     4.28812
  
  
  S  C   1  -0.04727     0.15782     0.35397     0.08056     0.13477    -0.00752
 PX  C   1   0.03225    -0.05141    -0.05582     0.11619     0.08067    -0.01301
 PY  C   1  -0.01557     0.02692    -0.00106    -0.08553    -0.04402    -0.01482
 PZ  C   1  -0.11377    -0.06381    -0.01751    -0.01205    -0.01801     0.00815
  
  S  C   2  -0.01437     0.00094    -0.09274    -0.28017    -0.25062     0.04113
 PX  C   2  -0.04078     0.07970     0.16122    -0.04975     0.02018    -0.00364
 PY  C   2  -0.05485     0.02384     0.08429    -0.04573     0.03888    -0.01524
 PZ  C   2   0.14910     0.08233     0.03912     0.04939     0.06542    -0.02056
  
  S  C   3   0.12575    -0.11523    -0.23964     0.27569     0.00751     0.05478
 PX  C   3   0.04526    -0.01486     0.02757    -0.01950    -0.15369     0.08749
 PY  C   3   0.01515    -0.02924    -0.14713    -0.08435    -0.04578    -0.02422
 PZ  C   3  -0.25706    -0.12730    -0.02782    -0.03715    -0.04836     0.01908
  
  S  C   4  -0.04497     0.08995     0.34084    -0.00201    -0.04477     0.05960
 PX  C   4  -0.02808     0.07707     0.01253    -0.14455    -0.16032     0.03543
 PY  C   4   0.04564    -0.00761    -0.05660     0.11299    -0.08347     0.07880
 PZ  C   4   0.25030     0.13153     0.03613     0.01724     0.03300    -0.01997
  
  S  C   5  -0.01882     0.08578    -0.11377    -0.23992    -0.25940     0.04622
 PX  C   5   0.03068    -0.07386    -0.14405     0.07106     0.07532    -0.01743
 PY  C   5   0.03992    -0.02596    -0.09463     0.00041    -0.07459     0.03111
 PZ  C   5  -0.13416    -0.08410    -0.04316    -0.00505    -0.03380     0.01807
  
  S  C   6   0.10757    -0.17454    -0.23087     0.20660     0.06181     0.02405
 PX  C   6  -0.01844    -0.00833     0.00789    -0.01840     0.01579    -0.02137
 PY  C   6  -0.01477     0.02258     0.14822     0.10467     0.13083    -0.01695
 PZ  C   6   0.08820     0.09519     0.07222    -0.02525     0.01668    -0.01629
  
  S  C   7  -0.13906     0.09925     0.02553    -0.09848     0.27072    -0.20071
 PX  C   7   0.01646    -0.02275    -0.11133     0.12699     0.06211     0.00504
 PY  C   7  -0.00299     0.00591    -0.06497     0.06996    -0.01620     0.05293
 PZ  C   7   0.22638     0.11217     0.01384     0.01657     0.02869    -0.01081
  
  S  C   8  -0.01095    -0.12526    -0.07278    -0.06139     0.31041    -0.20147
 PX  C   8  -0.00801     0.00342     0.17126    -0.01204    -0.01253     0.06143
 PY  C   8  -0.02090     0.00353     0.08703    -0.00549     0.06172    -0.02967
 PZ  C   8  -0.23297    -0.12025    -0.01820    -0.01409    -0.00679     0.00858
  
  S  C   9   0.03699     0.08817    -0.24950     0.09542    -0.10633    -0.07035
 PX  C   9  -0.01330    -0.04918    -0.09101    -0.03064     0.13039    -0.12694
 PY  C   9   0.03837    -0.04435     0.03166    -0.09473    -0.07368    -0.11286
 PZ  C   9   0.29952     0.14631     0.01095    -0.00013     0.02505    -0.02256
  
  S  C  10   0.05000    -0.06710     0.20592    -0.14540    -0.14526    -0.03538
 PX  C  10  -0.01293     0.08346    -0.05745    -0.06383    -0.00734    -0.16397
 PY  C  10  -0.04721    -0.00495     0.09553    -0.07068     0.12602    -0.02434
 PZ  C  10  -0.29752    -0.14358    -0.02060     0.00227    -0.01657     0.00374
  
  S  C  11   0.03463    -0.13144     0.02047     0.16016     0.08326     0.33335
 PX  C  11   0.03199    -0.08970     0.12138    -0.01189    -0.05425     0.03993
 PY  C  11   0.01533    -0.06245     0.05587     0.00070    -0.04022    -0.06235
 PZ  C  11   0.21993     0.11302     0.00903    -0.02222     0.01138    -0.01240
  
  S  H  12  -0.04039     0.09266    -0.00558    -0.08786    -0.05400    -0.30052
  
  S  C  13  -0.10693     0.07859     0.12983     0.12746     0.04679     0.34782
 PX  C  13  -0.02875     0.08978    -0.07086     0.10950    -0.04192    -0.03240
 PY  C  13   0.01043     0.03764    -0.05403     0.05817    -0.01361     0.04434
 PZ  C  13  -0.22541    -0.10673    -0.01002     0.01452    -0.02027     0.00261
  
  S  H  14   0.08708    -0.06723    -0.02686     0.05487    -0.22251     0.19423
  
  S  H  15   0.01893    -0.11196    -0.24721    -0.06496    -0.06556    -0.01874
  
  S  H  16  -0.01352    -0.00496     0.05082     0.16377     0.20759    -0.05583
  
  S  H  17  -0.00656    -0.06874     0.08150     0.16046     0.26048    -0.07423
  
  S  H  18  -0.08641     0.11068     0.15439    -0.15068    -0.01267    -0.04107
  
  S  H  19  -0.00049     0.09814     0.05191     0.03048    -0.26514     0.20299
  
  S  H  20   0.05798    -0.05875    -0.07753    -0.06140    -0.02908    -0.29838
  
  S  C  21  -0.04085     0.03835     0.13005     0.23723    -0.22459    -0.22457
 PX  C  21  -0.06125     0.15159    -0.07374     0.02757    -0.02602    -0.04939
 PY  C  21  -0.05101     0.09028    -0.05100    -0.00324     0.04643     0.07102
 PZ  C  21   0.13991     0.08114    -0.02264    -0.04981     0.04044     0.03510
  
  S  C  22   0.18972    -0.30661     0.06038    -0.18292     0.06755     0.01745
 PX  C  22  -0.01018     0.01091    -0.00505    -0.01547    -0.00092    -0.03137
 PY  C  22   0.05353    -0.11411     0.09663     0.08720    -0.10451    -0.09842
 PZ  C  22  -0.09277    -0.09268     0.01699     0.01461    -0.01458    -0.01280
  
  S  C  23  -0.16776     0.33674    -0.17365    -0.07289     0.10960     0.07835
 PX  C  23  -0.04795     0.10198    -0.01051     0.11429    -0.06789    -0.07510
 PY  C  23   0.02832    -0.03115    -0.01427    -0.06944     0.04027     0.00607
 PZ  C  23   0.09972     0.08022    -0.01028    -0.02379     0.02589     0.03215
  
  S  C  24   0.01247    -0.02912     0.07691     0.28975    -0.21072    -0.22114
 PX  C  24   0.07425    -0.16465     0.05905    -0.06553    -0.00318    -0.00565
 PY  C  24   0.06815    -0.06207     0.03261    -0.03561    -0.03312    -0.05976
 PZ  C  24  -0.13603    -0.08271    -0.00051     0.02116    -0.02941    -0.04288
  
  S  H  25   0.02068    -0.03394    -0.08580    -0.14839     0.18819     0.23562
  
  S  H  26  -0.12163     0.18242    -0.03193     0.12675    -0.03015     0.03865
  
  S  H  27   0.10245    -0.23293     0.12261     0.05235    -0.05845     0.00044
  
  S  H  28  -0.02295     0.00728    -0.03691    -0.18142     0.16320     0.21439
  
  S  C  29  -0.09416     0.26071    -0.20846    -0.06628     0.06168    -0.04127
 PX  C  29   0.04791    -0.07979    -0.03345    -0.11711     0.11861     0.13469
 PY  C  29  -0.03542     0.05027    -0.01490     0.14471     0.00670     0.11663
 PZ  C  29  -0.23242    -0.12700     0.00521     0.03321    -0.02293    -0.00842
  
  S  C  30   0.14701    -0.23413     0.06440    -0.26857     0.04743    -0.05191
 PX  C  30  -0.02690    -0.02520     0.06964     0.00593     0.04140     0.16701
 PY  C  30  -0.04723     0.09645    -0.09679    -0.11040     0.09013     0.04718
 PZ  C  30   0.23445     0.12837    -0.00059    -0.02286     0.02905     0.02649




    ROOT NO.   61          62          63          64          65          66

             5.14653     5.25496     5.34284     5.62087     6.14856     6.44425
  
  
  S  C   1  -0.20711    -0.14273     0.03922    -0.11398    -0.05779    -0.02064
 PX  C   1   0.02570     0.14997    -0.04668     0.19744     0.13099     0.04497
 PY  C   1   0.27736     0.09181    -0.02466     0.05144     0.04341     0.02249
 PZ  C   1  -0.00034    -0.00408     0.00086    -0.00211     0.00076     0.00040
  
  S  C   2  -0.01476    -0.20216     0.06366    -0.24272    -0.14423    -0.05224
 PX  C   2  -0.12960    -0.12663     0.03705    -0.11264    -0.06254    -0.02773
 PY  C   2   0.02245     0.04809    -0.01913     0.12752     0.17743     0.09573
 PZ  C   2   0.01871     0.04142    -0.01246     0.05009     0.03834     0.01695
  
  S  C   3   0.04363     0.07405    -0.02261    -0.03329    -0.14467    -0.08421
 PX  C   3   0.08756    -0.13576     0.03193    -0.10117     0.09120     0.09670
 PY  C   3  -0.01301    -0.05119     0.02477    -0.12934    -0.18649    -0.12161
 PZ  C   3  -0.01346    -0.02048     0.00488    -0.01527    -0.00305     0.00016
  
  S  C   4   0.01824    -0.03997     0.00080     0.07550     0.20659     0.14059
 PX  C   4  -0.07685     0.06774    -0.01963     0.11906     0.06724     0.02001
 PY  C   4   0.04467     0.10971    -0.03656     0.02118    -0.15574    -0.11666
 PZ  C   4   0.02097     0.00619     0.00010     0.00085     0.00035     0.00027
  
  S  C   5  -0.15183     0.06615    -0.01898     0.14034     0.08614     0.02619
 PX  C   5  -0.00530     0.00960    -0.00091    -0.07708    -0.17352    -0.11778
 PY  C   5  -0.28404     0.00499    -0.00430     0.13358     0.15927     0.09102
 PZ  C   5  -0.04650    -0.00128    -0.00075     0.01568     0.01668     0.00907
  
  S  C   6  -0.32885    -0.00595    -0.00212     0.06704     0.02727     0.00147
 PX  C   6   0.28932     0.03645    -0.00715    -0.04846    -0.03287    -0.00096
 PY  C   6  -0.03182    -0.09410     0.02753    -0.12595    -0.08230    -0.02824
 PZ  C   6   0.07905     0.00128     0.00088    -0.01978    -0.01131    -0.00261
  
  S  C   7  -0.14014     0.17939    -0.03607     0.11664    -0.10882    -0.10971
 PX  C   7  -0.04179     0.05784    -0.01979    -0.01466    -0.10768    -0.06820
 PY  C   7   0.04195    -0.05706     0.00077    -0.11997     0.09169     0.22634
 PZ  C   7   0.00362     0.00990    -0.00229     0.00317    -0.00199     0.00168
  
  S  C   8   0.00144    -0.18425     0.05946    -0.09789     0.11594     0.10282
 PX  C   8  -0.02349     0.01858    -0.03241     0.10909    -0.01610    -0.11696
 PY  C   8  -0.01921    -0.09738     0.03181    -0.03197     0.20850     0.23252
 PZ  C   8  -0.00853    -0.00790    -0.00134     0.00053    -0.00100    -0.00661
  
  S  C   9   0.04168     0.01657     0.03918    -0.13535     0.00801     0.14643
 PX  C   9   0.01809    -0.13262     0.04176    -0.06627     0.09398     0.08260
 PY  C   9   0.02901    -0.08480     0.04561     0.11375     0.04097    -0.19569
 PZ  C   9   0.00497    -0.00742     0.00859    -0.00265     0.00951     0.00172
  
  S  C  10   0.01956    -0.01414     0.02350     0.13962    -0.00254    -0.16804
 PX  C  10  -0.04785     0.14584     0.00295    -0.04639    -0.09133     0.10189
[...]
  S   H   18   -0.0423   -0.0050   -0.0618   -0.0878   -0.0201    0.0261    0.3029    0.0824
  S   H   19   -0.2120   -0.2438    0.2654    0.0755   -0.0931   -0.0007    0.0727    0.1697
  S   H   20    0.1512   -0.2510    0.2812   -0.2126    0.0459    0.0453   -0.0194   -0.1364
  S   C   21    0.0935   -0.0456   -0.0122    0.0064    0.0048    0.0724   -0.0054    0.0594
  Px  C   21    0.1365   -0.1174   -0.1134    0.1576   -0.2879   -0.0801    0.0073   -0.0601
  Py  C   21   -0.1339    0.0936    0.0416   -0.0564    0.0948    0.2390   -0.0187    0.1646
  Pz  C   21   -0.0141    0.0077    0.0023   -0.0031    0.0065   -0.0062    0.0004   -0.0056
  S   C   22    0.0376   -0.0111    0.0273   -0.0326    0.0521   -0.1013    0.0078   -0.0384
  Px  C   22    0.0472   -0.0179    0.0364   -0.0466    0.0717    0.5007   -0.0381    0.1184
  Py  C   22    0.0712   -0.0345   -0.0175    0.0230   -0.0454   -0.0691    0.0058    0.0683
  Pz  C   22   -0.0011    0.0011   -0.0005    0.0008   -0.0010   -0.0359    0.0027   -0.0118
  S   C   23   -0.0379    0.0193    0.0226   -0.0279    0.0479    0.1259   -0.0096   -0.0348
  Px  C   23   -0.0988    0.0475   -0.0082    0.0104   -0.0257   -0.2033    0.0141    0.0958
  Py  C   23   -0.0215    0.0175    0.0346   -0.0436    0.0675   -0.4736    0.0359    0.0301
  Pz  C   23    0.0101   -0.0057    0.0043   -0.0052    0.0087    0.0136   -0.0010   -0.0078
  S   C   24   -0.1100    0.0533   -0.0225    0.0181   -0.0120   -0.0671    0.0051    0.0536
  Px  C   24    0.0417   -0.0249   -0.0193    0.0307   -0.0702   -0.2037    0.0147    0.0986
  Py  C   24   -0.1645    0.1206   -0.1277    0.1705   -0.2839    0.2278   -0.0189   -0.1528
  Pz  C   24   -0.0262    0.0183   -0.0184    0.0231   -0.0349    0.0446   -0.0034   -0.0263
  S   H   25   -0.1871    0.1270    0.0808   -0.1060    0.1788    0.1314   -0.0108    0.0944
  S   H   26   -0.0646    0.0259   -0.0329    0.0395   -0.0567   -0.3108    0.0236   -0.0719
  S   H   27    0.0801   -0.0452   -0.0209    0.0246   -0.0327    0.3059   -0.0226   -0.0385
  S   H   28    0.1834   -0.1145    0.0936   -0.1179    0.1818   -0.1800    0.0143    0.1062
  S   C   29    0.1585   -0.1345   -0.0672    0.1116   -0.2480    0.0130   -0.0018    0.0086
  Px  C   29   -0.0693    0.0362   -0.0062    0.0332   -0.1127   -0.0894    0.0083   -0.0942
  Py  C   29    0.1575   -0.1533    0.0262   -0.0576    0.1472   -0.0280    0.0002   -0.0390
  Pz  C   29    0.0039   -0.0039    0.0008   -0.0008   -0.0001   -0.0028    0.0002   -0.0027
  S   C   30   -0.1447    0.1115   -0.0829    0.1286   -0.2584   -0.0047    0.0009    0.0013
  Px  C   30   -0.0964    0.1183   -0.0011   -0.0152    0.0789    0.0698   -0.0048   -0.1304
  Py  C   30    0.1488   -0.1216    0.0040    0.0338   -0.1526    0.0638   -0.0095   -0.0580
  Pz  C   30    0.0076   -0.0041    0.0035   -0.0037    0.0041    0.0037   -0.0004   -0.0062


   Root No.      73        74        75        76        77        78        79        80

                73 A      74 A      75 A      76 A      77 A      78 A      79 A      80 A   

                 9.333     9.517    10.090    10.770    10.968    11.481    11.705    12.160
  
  S   C    1    0.0327   -0.0599    0.0564   -0.0718   -0.0312    0.0212    0.0059    0.0025
  Px  C    1    0.0016   -0.1662   -0.0883   -0.1671    0.2138   -0.1658    0.0370    0.1694
  Py  C    1    0.1230   -0.0806    0.2300   -0.0764   -0.2184    0.1568   -0.0120   -0.1096
  Pz  C    1    0.0132   -0.0163    0.0213   -0.0164   -0.0149    0.0104    0.0001   -0.0051
  S   C    2    0.0306    0.0615    0.0819    0.0192   -0.0967    0.0595    0.0173    0.0010
  Px  C    2    0.0205   -0.1798   -0.0161   -0.2091    0.1284   -0.1060    0.0594    0.1839
  Py  C    2    0.1259    0.1335    0.2253   -0.0558   -0.1777    0.0889    0.0915    0.1168
  Pz  C    2    0.0105    0.0091    0.0167   -0.0067   -0.0106    0.0042    0.0083    0.0131
  S   C    3   -0.0208    0.0427   -0.0019    0.0614   -0.0432    0.0287    0.0013   -0.0090
  Px  C    3    0.1854    0.1389    0.2607   -0.0480   -0.0030   -0.0914   -0.1757   -0.1855
  Py  C    3    0.0589   -0.0019    0.1435   -0.1105   -0.2100    0.1441    0.2630    0.3507
  Pz  C    3    0.0082    0.0029    0.0119   -0.0047   -0.0027   -0.0018   -0.0011   -0.0004
  S   C    4    0.0126    0.0534   -0.0053    0.0720    0.0288   -0.0329   -0.0056    0.0070
  Px  C    4   -0.1058    0.0682   -0.2256   -0.1045    0.1880   -0.0437   -0.1183   -0.2256
  Py  C    4   -0.1019    0.0680   -0.1136   -0.0043   -0.1288    0.1661    0.2905    0.3286
  Pz  C    4    0.0023   -0.0012    0.0037    0.0022   -0.0016   -0.0001   -0.0030   -0.0015
  S   C    5   -0.0108    0.0795   -0.0658    0.0417    0.0791   -0.0545   -0.0153   -0.0010
  Px  C    5   -0.0830   -0.0099   -0.1489   -0.1736    0.1129    0.0045   -0.1122   -0.2462
  Py  C    5   -0.0036   -0.2238    0.0817   -0.1771   -0.1168    0.1189   -0.0060   -0.1060
  Pz  C    5    0.0026   -0.0080    0.0076   -0.0030   -0.0073    0.0041    0.0027    0.0028
  S   C    6   -0.0407   -0.0536   -0.0665   -0.0655    0.0622   -0.0250   -0.0086   -0.0134
  Px  C    6   -0.1353   -0.1667   -0.1712   -0.1558    0.1316   -0.0449   -0.0189   -0.0309
  Py  C    6    0.0494   -0.1289    0.1822   -0.1616   -0.2436    0.2202   -0.0428   -0.2234
  Pz  C    6    0.0017   -0.0072    0.0103   -0.0068   -0.0148    0.0128   -0.0028   -0.0131
  S   C    7   -0.1024   -0.0299   -0.0791    0.0717   -0.0574    0.0668    0.0161    0.0216
  Px  C    7    0.0952    0.1392    0.1700    0.0332   -0.0486   -0.0213   -0.1858   -0.1984
  Py  C    7   -0.2980   -0.0381   -0.1394    0.2074   -0.1631    0.1592   -0.0655   -0.0198
  Pz  C    7   -0.0057    0.0034    0.0008    0.0071   -0.0069    0.0046   -0.0075   -0.0068
  S   C    8    0.0817    0.0009    0.0668    0.0884    0.0436   -0.0826   -0.0167   -0.0165
  Px  C    8    0.1417    0.1136    0.0029    0.2220    0.1121   -0.1346    0.1522    0.1026
  Py  C    8   -0.1901    0.0636   -0.1733   -0.1084   -0.0404    0.1224    0.1080    0.1170
  Pz  C    8    0.0176    0.0043    0.0096    0.0197    0.0105   -0.0168    0.0035    0.0014
  S   C    9    0.0025   -0.0404    0.0297    0.0028    0.0036   -0.0179   -0.0216    0.0016
  Px  C    9    0.2221    0.1070    0.0514    0.2820    0.1684   -0.1977    0.1152    0.0803
  Py  C    9    0.1287    0.0132   -0.1574    0.1349    0.0411    0.3391   -0.2971    0.0453
  Pz  C    9    0.0196    0.0078    0.0006    0.0260    0.0134   -0.0074    0.0027    0.0087
  S   C   10    0.0045   -0.0406   -0.0452   -0.0013   -0.0044    0.0291    0.0173    0.0098
  Px  C   10   -0.2865   -0.0439    0.0525    0.2424   -0.1870   -0.1787    0.1683   -0.0938
  Py  C   10   -0.1555    0.0340   -0.1417    0.1168   -0.1508    0.3364   -0.2620   -0.0583
  Pz  C   10   -0.0165   -0.0009    0.0023    0.0143   -0.0110   -0.0060    0.0053   -0.0066
  S   C   11    0.1194   -0.0217   -0.0645   -0.0833    0.0446    0.0727    0.0123    0.0090
  Px  C   11   -0.1840   -0.0667   -0.0068    0.1951   -0.1330   -0.1113    0.1962   -0.0863
  Py  C   11    0.3018   -0.1332   -0.1877   -0.1052    0.0277    0.1275    0.1399   -0.0595
  Pz  C   11    0.0004   -0.0054   -0.0045    0.0054   -0.0049   -0.0019    0.0100   -0.0047
  S   H   12    0.2050   -0.0466   -0.0969   -0.0920    0.0500    0.1073    0.0166   -0.0128
  S   C   13   -0.0768   -0.0646    0.0806   -0.0784   -0.0216   -0.0743   -0.0071    0.0051
  Px  C   13   -0.0682   -0.1913    0.1508    0.0427    0.0415   -0.0555   -0.2263    0.1309
  Py  C   13    0.2295    0.1294   -0.1443    0.2337    0.0789    0.1675   -0.1080    0.0279
  Pz  C   13    0.0096   -0.0011   -0.0015    0.0137    0.0072    0.0078   -0.0152    0.0073
  S   H   14   -0.1796   -0.0589   -0.1191    0.0821   -0.0696    0.0968    0.0150    0.0487
  S   H   15    0.0629   -0.0902    0.0862   -0.0869   -0.0425    0.0271    0.0067   -0.0018
  S   H   16    0.0602    0.1169    0.1227    0.0271   -0.1332    0.0808    0.0358    0.0151
  S   H   17   -0.0226    0.1002   -0.0819    0.0353    0.0922   -0.0610   -0.0304   -0.0177
  S   H   18   -0.0796   -0.0964   -0.0984   -0.0855    0.0757   -0.0278   -0.0108   -0.0137
  S   H   19    0.1347   -0.0020    0.0893    0.0997    0.0530   -0.1030   -0.0130   -0.0375
  S   H   20   -0.1414   -0.1216    0.1193   -0.0943   -0.0333   -0.1143   -0.0126    0.0266
  S   C   21   -0.0602    0.1151    0.0662   -0.0305    0.0988    0.0712    0.0019    0.0215
  Px  C   21    0.1349   -0.0499   -0.1332   -0.1871   -0.1187   -0.0721   -0.1499    0.2027
  Py  C   21   -0.1339    0.3282    0.1026   -0.1644    0.1637    0.1197   -0.0530    0.1392
  Pz  C   21    0.0029   -0.0134   -0.0039    0.0105   -0.0091   -0.0072    0.0053   -0.0103
  S   C   22   -0.0068   -0.0877    0.0349    0.0851    0.0317    0.0234    0.0068   -0.0155
  Px  C   22    0.0473    0.2462   -0.1120   -0.1912   -0.0881   -0.0593   -0.0041    0.0142
  Py  C   22   -0.1036    0.1617    0.1515   -0.1164    0.2522    0.1991   -0.1228    0.2490
  Pz  C   22   -0.0011   -0.0251    0.0068    0.0196    0.0039    0.0024    0.0046   -0.0079
  S   C   23    0.0551   -0.0837   -0.0414    0.0745   -0.0363   -0.0125   -0.0084    0.0037
  Px  C   23   -0.0728    0.2267   -0.0522   -0.2263   -0.1511   -0.1619    0.1071   -0.1824
  Py  C   23   -0.1560    0.0698    0.1845   -0.0244    0.2149    0.1491   -0.0609    0.1282
  Pz  C   23    0.0066   -0.0185    0.0022    0.0180    0.0087    0.0102   -0.0106    0.0160
  S   C   24   -0.0036    0.1032   -0.0652   -0.0531   -0.1005   -0.0763   -0.0052   -0.0187
  Px  C   24   -0.0934    0.2386    0.0061   -0.2448   -0.0519   -0.0880    0.1252   -0.1776
  Py  C   24   -0.0414   -0.2305    0.1869   -0.0108    0.2154    0.1265    0.1071   -0.0751
  Pz  C   24    0.0039   -0.0484    0.0229    0.0224    0.0339    0.0265    0.0011    0.0076
  S   H   25   -0.1048    0.1647    0.0887   -0.0174    0.1154    0.0820    0.0228    0.0049
  S   H   26   -0.0288   -0.1506    0.0643    0.1151    0.0480    0.0322    0.0067   -0.0129
  S   H   27    0.1028   -0.0945   -0.0818    0.0750   -0.0681   -0.0311   -0.0036   -0.0097
  S   H   28   -0.0030    0.1818   -0.0943   -0.0590   -0.1268   -0.0927   -0.0245   -0.0079
  S   C   29    0.0041    0.0489    0.0092   -0.0629    0.0384    0.0275   -0.0067    0.0175
  Px  C   29    0.1924   -0.1240   -0.2052   -0.1513   -0.2123   -0.1287   -0.1484    0.1813
  Py  C   29    0.1675   -0.0858   -0.1399    0.0075    0.1171    0.2231    0.3482   -0.1991
  Pz  C   29    0.0060   -0.0047   -0.0047   -0.0003    0.0019    0.0051    0.0063   -0.0020
  S   C   30   -0.0253    0.0374    0.0097   -0.0688   -0.0196   -0.0257    0.0136   -0.0165
  Px  C   30   -0.1325   -0.2158    0.2352   -0.0342    0.0320   -0.1279   -0.2178    0.1186
  Py  C   30   -0.0356   -0.0453    0.1255   -0.0670    0.2705    0.2216    0.3149   -0.2310
  Pz  C   30   -0.0059   -0.0092    0.0118   -0.0030    0.0076   -0.0001    0.0021   -0.0037


   Root No.      81        82        83        84

                81 A      82 A      83 A      84 A   

                12.691    12.774    13.231    14.648
  
  S   C    1   -0.0053    0.0689   -0.0134    0.0414
  Px  C    1   -0.2401    0.2089   -0.1670    0.1056
  Py  C    1    0.1498    0.0224    0.0816    0.0230
  Pz  C    1    0.0064    0.0117    0.0018    0.0068
  S   C    2    0.0173    0.0165    0.0083    0.0287
  Px  C    2   -0.2397    0.2723   -0.1729    0.1556
  Py  C    2   -0.0758    0.1729   -0.0512    0.1263
  Pz  C    2   -0.0110    0.0158   -0.0071    0.0102
  S   C    3    0.0079   -0.0184   -0.0034    0.0217
  Px  C    3   -0.1186    0.2268   -0.2531    0.2254
  Py  C    3   -0.1330    0.1959    0.0044    0.1147
  Pz  C    3   -0.0056    0.0116   -0.0081    0.0096
  S   C    4   -0.0047   -0.0182    0.0077    0.0207
  Px  C    4    0.2325    0.2158    0.1162    0.2087
  Py  C    4    0.0528    0.1621    0.1993    0.1416
  Pz  C    4   -0.0045   -0.0055   -0.0045   -0.0041
  S   C    5   -0.0135    0.0141   -0.0097    0.0268
  Px  C    5    0.2513    0.2239    0.1121    0.1821
  Py  C    5    0.1673    0.0900    0.0966    0.0544
  Pz  C    5   -0.0011   -0.0011   -0.0002   -0.0020
  S   C    6    0.0137    0.0667    0.0028    0.0408
  Px  C    6    0.0308    0.1357    0.0062    0.0789
  Py  C    6    0.3007    0.0792    0.1671    0.0644
  Pz  C    6    0.0168    0.0014    0.0093    0.0018
  S   C    7   -0.0031   -0.0582    0.0058    0.0117
  Px  C    7   -0.1167    0.1790   -0.2589    0.2517
  Py  C    7   -0.0976   -0.0200   -0.1086    0.1478
  Pz  C    7   -0.0063    0.0046   -0.0114    0.0121
  S   C    8   -0.0030   -0.0620   -0.0033    0.0094
  Px  C    8    0.1846    0.0988    0.2190    0.2628
  Py  C    8    0.0776    0.1802    0.1344    0.1280
  Pz  C    8    0.0070   -0.0033    0.0078    0.0112
  S   C    9   -0.0293   -0.0583    0.0059    0.0025
  Px  C    9    0.1586    0.0240    0.2180    0.2689
  Py  C    9   -0.2234   -0.0227    0.1430    0.1485
  Pz  C    9    0.0071    0.0007    0.0216    0.0244
  S   C   10    0.0110   -0.0640    0.0008    0.0018
  Px  C   10    0.1081   -0.0507   -0.2486    0.2698
  Py  C   10   -0.2315    0.0423   -0.1146    0.1472
  Pz  C   10    0.0026   -0.0016   -0.0149    0.0155
  S   C   11   -0.0059   -0.0587    0.0032   -0.0134
  Px  C   11    0.1188   -0.1290   -0.2431    0.2625
  Py  C   11    0.0236   -0.1925   -0.1410    0.1284
  Pz  C   11    0.0045   -0.0085   -0.0116    0.0132
  S   H   12   -0.0263   -0.0496   -0.0073   -0.0037
  S   C   13   -0.0081   -0.0554    0.0058   -0.0109
  Px  C   13   -0.1124   -0.1664    0.2661    0.2559
  Py  C   13   -0.0832    0.0153    0.1303    0.1590
  Pz  C   13   -0.0089   -0.0060    0.0186    0.0194
  S   H   14   -0.0234   -0.0449    0.0173    0.0036
  S   H   15    0.0033    0.0680   -0.0068    0.0368
  S   H   16    0.0272    0.0090    0.0247    0.0157
  S   H   17   -0.0153    0.0119   -0.0192    0.0158
  S   H   18    0.0098    0.0697   -0.0014    0.0374
  S   H   19    0.0162   -0.0525   -0.0115    0.0031
  S   H   20    0.0175   -0.0440    0.0109   -0.0053
  S   C   21    0.0255    0.0030   -0.0190   -0.0222
  Px  C   21    0.1687   -0.2551   -0.1380    0.1720
  Py  C   21    0.1456   -0.1291   -0.1267    0.0567
  Pz  C   21   -0.0095    0.0091    0.0076   -0.0039
  S   C   22   -0.0069    0.0686    0.0109   -0.0403
  Px  C   22   -0.0060   -0.1335   -0.0057    0.0765
  Py  C   22    0.2599   -0.1483   -0.2121    0.0670
  Pz  C   22   -0.0061    0.0145    0.0055   -0.0076
  S   C   23    0.0243    0.0681   -0.0210   -0.0423
  Px  C   23   -0.2550   -0.1498    0.2035    0.1040
  Py  C   23    0.1299   -0.0588   -0.0991    0.0267
  Pz  C   23    0.0213    0.0121   -0.0165   -0.0082
  S   C   24   -0.0228    0.0151    0.0168   -0.0247
  Px  C   24   -0.2570   -0.2040    0.2030    0.1463
  Py  C   24   -0.0981   -0.1535    0.0681    0.1255
  Pz  C   24    0.0116    0.0011   -0.0098    0.0016
  S   H   25    0.0203    0.0089   -0.0227   -0.0167
  S   H   26    0.0004    0.0757    0.0041   -0.0402
  S   H   27    0.0071    0.0679   -0.0063   -0.0377
  S   H   28   -0.0217    0.0172    0.0245   -0.0164
  S   C   29    0.0034   -0.0133    0.0098   -0.0229
  Px  C   29    0.1540   -0.2551   -0.1398    0.2036
  Py  C   29   -0.0012   -0.1633   -0.1948    0.1368
  Pz  C   29    0.0027   -0.0063   -0.0070    0.0058
  S   C   30   -0.0104   -0.0127   -0.0077   -0.0248
  Px  C   30   -0.1203   -0.2035    0.2619    0.2279
  Py  C   30   -0.1598   -0.1621    0.0326    0.1164
  Pz  C   30   -0.0105   -0.0127    0.0121    0.0126


              NET ATOMIC CHARGES AND DIPOLE CONTRIBUTIONS

  ATOM NO.   TYPE          CHARGE      No. of ELECS.   s-Pop       p-Pop       
    1          C          -0.022856        4.0229     1.10332     2.91953
    2          C          -0.028468        4.0285     1.08808     2.94039
    3          C           0.019730        3.9803     1.05641     2.92386
    4          C           0.016434        3.9836     1.06006     2.92350
    5          C          -0.023278        4.0233     1.11298     2.91029
    6          C          -0.030680        4.0307     1.10530     2.92538
    7          C          -0.036062        4.0361     1.09935     2.93672
    8          C          -0.030082        4.0301     1.09747     2.93262
    9          C           0.009350        3.9907     1.06803     2.92262
   10          C           0.008032        3.9920     1.07039     2.92157
   11          C          -0.034115        4.0341     1.09631     2.93780
   12          H           0.019343        0.9807     0.98066
   13          C          -0.035530        4.0355     1.09423     2.94130
   14          H           0.020700        0.9793     0.97930
   15          H           0.021670        0.9783     0.97833
   16          H           0.020356        0.9796     0.97964
   17          H           0.007871        0.9921     0.99213
   18          H           0.029887        0.9701     0.97011
   19          H           0.024339        0.9757     0.97566
   20          H           0.019928        0.9801     0.98007
   21          C          -0.019948        4.0199     1.09420     2.92574
   22          C          -0.022216        4.0222     1.09267     2.92954
   23          C          -0.026072        4.0261     1.09816     2.92791
   24          C          -0.018238        4.0182     1.08037     2.93787
   25          H           0.019737        0.9803     0.98026
   26          H           0.024668        0.9753     0.97533
   27          H           0.016669        0.9833     0.98333
   28          H           0.025741        0.9743     0.97426
   29          C           0.011449        3.9886     1.07113     2.91742
   30          C           0.011640        3.9884     1.06546     2.92290
 DIPOLE           X         Y         Z       TOTAL
 POINT-CHG.     0.159     0.107    -0.022     0.193
 HYBRID        -0.016     0.098    -0.177     0.203
 SUM            0.143     0.205    -0.199     0.320


          ATOMIC ORBITAL ELECTRON POPULATIONS

     Atom    s        px        py        pz   
    1  C   1.10332   0.97914   0.95062   0.98977
    2  C   1.08808   0.97038   0.95822   1.01179
    3  C   1.05641   0.96869   0.97422   0.98095
    4  C   1.06006   0.96467   0.97282   0.98602
    5  C   1.11298   0.96305   0.94534   1.00191
    6  C   1.10530   0.93442   0.99094   1.00002
    7  C   1.09935   0.96179   0.95412   1.02081
    8  C   1.09747   0.96969   0.94742   1.01550
    9  C   1.06803   0.97173   0.97294   0.97795
   10  C   1.07039   0.96886   0.97134   0.98138
   11  C   1.09631   0.96471   0.94821   1.02488
   12  H   0.98066
   13  C   1.09423   0.96531   0.95806   1.01793
   14  H   0.97930
   15  H   0.97833
   16  H   0.97964
   17  H   0.99213
   18  H   0.97011
   19  H   0.97566
   20  H   0.98007
   21  C   1.09420   0.96453   0.95801   1.00321
   22  C   1.09267   0.94382   0.98883   0.99690
   23  C   1.09816   0.98682   0.94063   1.00046
   24  C   1.08037   0.98764   0.95272   0.99751
   25  H   0.98026
   26  H   0.97533
   27  H   0.98333
   28  H   0.97426
   29  C   1.07113   0.96218   0.96771   0.98753
   30  C   1.06546   0.97236   0.96641   0.98412

 **********************
 *                    *
 * JOB ENDED NORMALLY *
 *                    *
 **********************



 TOTAL JOB TIME:             1.06 SECONDS

 == MOPAC DONE ==


          MOPAC Job: "./tetraceneTraj/tetracene_683.mop" ended normally on Feb 15, 2023, at 11:26.

rm: cannot remove ./tetraceneTraj/tetracene_683.cim: No such file or directory
rm: cannot remove ./tetraceneTraj/tetracene_683.end: No such file or directory
rm: cannot remove ./tetraceneTraj/tetracene_683.log: No such file or directory
rm: cannot remove ./tetraceneTraj/tetracene_683.temp: No such file or directory
rm: cannot remove ./tetraceneTraj/tetracene_683.ple: No such file or directory
rm: cannot remove ./tetraceneTraj/tetracene_683.sts: No such file or directory
