 *******************************************************************************
 ** Site#:    0         For non-commercial use only    Version 20.173L 64BITS **
 *******************************************************************************
 ** Cite this program as: MOPAC2016, Version: 20.173L, James J. P. Stewart,   **
 ** Stewart Computational Chemistry, web-site: HTTP://OpenMOPAC.net.          **
 *******************************************************************************
 **                                                                           **
 **                                MOPAC2016                                  **
 **                                                                           **
 *******************************************************************************

                              INDO CALCULATION RESULTS

 *******************************************************************************
 *  CALCULATION DONE:                                Wed Feb 15 11:26:05 2023  *
 *  INDO       - The INDO Hamiltonian to be used
 *
 *
 *
 *                 CHARGE ON SYSTEM = 0
 *
 *
 *
 *  C.I.=(N,M) - 3 DOUBLY FILLED LEVELS USED IN A C.I. INVOLVING 6 M.O.'S
 *  T=         - A TIME OF 172800.0 SECONDS REQUESTED
 *  DUMP=N     - RESTART FILE WRITTEN EVERY 7200.0 SECONDS REQUESTED
 *  RELSCF     - DEFAULT SCF CRITERION MULTIPLIED BY 0.0000
 *              (DEFAULT SCF CRITERION = 0.00010)
 *  ALLVEC     - PRINT ALL EIGENVECTORS
 **********
 *  WARNING: Specified print options may not behave as expected with INDO
 **********
 *******************************************************************************
INDO C.I.=(6,3) AllVEC CHARGE=0 RELSCF=0.000001


   ATOM   CHEMICAL          X               Y               Z
  NUMBER   SYMBOL      (ANGSTROMS)     (ANGSTROMS)     (ANGSTROMS)
 
     1       C         18.47428271  *  19.50709246  *  22.30909457  *
     2       C         19.85517397  *  19.42812784  *  22.36627954  *
     3       C         20.67809226  *  20.66455115  *  22.43835393  *
     4       C         20.00209113  *  21.95084291  *  22.42420912  *
     5       C         18.51628403  *  21.97753452  *  22.46138073  *
     6       C         17.80362129  *  20.80939366  *  22.39211656  *
     7       C         22.09401030  *  20.64342168  *  22.45178280  *
     8       C         20.73799023  *  23.15655775  *  22.41537901  *
     9       C         22.14504813  *  23.13554372  *  22.55243749  *
    10       C         22.82295087  *  21.83859034  *  22.48306666  *
    11       C         24.31795736  *  21.82489267  *  22.55970764  *
    12       H         24.82571335  *  20.85666365  *  22.66346713  *
    13       C         22.95369796  *  24.34837214  *  22.59186009  *
    14       H         22.55554282  *  19.67134780  *  22.51567672  *
    15       H         17.80252591  *  18.64077761  *  22.16483543  *
    16       H         20.39562798  *  18.45973872  *  22.34407417  *
    17       H         18.01640808  *  22.95876632  *  22.53501240  *
    18       H         16.69734246  *  20.86765311  *  22.43244523  *
    19       H         20.27526035  *  24.12260401  *  22.40250991  *
    20       H         22.45855897  *  25.32919968  *  22.49663378  *
    21       C         26.50334865  *  23.04327141  *  22.58687863  *
    22       C         27.17073662  *  24.22282277  *  22.57799286  *
    23       C         26.44965552  *  25.53971019  *  22.56789883  *
    24       C         25.09359130  *  25.55842974  *  22.64415610  *
    25       H         27.06339272  *  22.08263833  *  22.63801826  *
    26       H         28.22940736  *  24.19088032  *  22.65159300  *
    27       H         27.04769431  *  26.42919731  *  22.60431836  *
    28       H         24.57152913  *  26.53705888  *  22.65130564  *
    29       C         25.05485656  *  23.01474569  *  22.55455367  *
    30       C         24.33173443  *  24.32379228  *  22.61445835  *
 


          CARTESIAN COORDINATES 

    NO.       ATOM           X           Y           Z

     1         C         18.4743     19.5071     22.3091
     2         C         19.8552     19.4281     22.3663
     3         C         20.6781     20.6646     22.4384
     4         C         20.0021     21.9508     22.4242
     5         C         18.5163     21.9775     22.4614
     6         C         17.8036     20.8094     22.3921
     7         C         22.0940     20.6434     22.4518
     8         C         20.7380     23.1566     22.4154
     9         C         22.1450     23.1355     22.5524
    10         C         22.8230     21.8386     22.4831
    11         C         24.3180     21.8249     22.5597
    12         H         24.8257     20.8567     22.6635
    13         C         22.9537     24.3484     22.5919
    14         H         22.5555     19.6713     22.5157
    15         H         17.8025     18.6408     22.1648
    16         H         20.3956     18.4597     22.3441
    17         H         18.0164     22.9588     22.5350
    18         H         16.6973     20.8677     22.4324
    19         H         20.2753     24.1226     22.4025
    20         H         22.4586     25.3292     22.4966
    21         C         26.5033     23.0433     22.5869
    22         C         27.1707     24.2228     22.5780
    23         C         26.4497     25.5397     22.5679
    24         C         25.0936     25.5584     22.6442
    25         H         27.0634     22.0826     22.6380
    26         H         28.2294     24.1909     22.6516
    27         H         27.0477     26.4292     22.6043
    28         H         24.5715     26.5371     22.6513
    29         C         25.0549     23.0147     22.5546
    30         C         24.3317     24.3238     22.6145

           Empirical Formula: C18 H12  =    30 atoms



      MOLECULAR POINT GROUP   :   C2  


      RHF CALCULATION, NO. OF DOUBLY OCCUPIED LEVELS = 42

 WARNING: INDO only performs single-point calculations
  SCF CRITERION =    0.1000E-09

 Summary of symmetry occupancy in each shell:

 SHELL     
    1   42
    v   42
 TOTAL  84




    ROOT NO.    1           2           3           4           5           6

           -44.54748   -42.93200   -40.26344   -36.95212   -35.70870   -34.26309
  
  
  S  C   1   0.11529    -0.18581     0.29248     0.23580     0.07410     0.10562
 PX  C   1   0.03174    -0.04509     0.05055     0.00933     0.04048     0.07796
 PY  C   1   0.04167    -0.06431     0.09142     0.06181    -0.01362    -0.03939
 PZ  C   1   0.00355    -0.00550     0.00779     0.00489     0.00054    -0.00002
  
  S  C   2   0.14648    -0.20575     0.24264     0.10334     0.16256     0.26552
 PX  C   2  -0.00220     0.02118    -0.07740    -0.10399     0.02783     0.04128
 PY  C   2   0.05973    -0.07755     0.07196     0.00677     0.01590     0.01971
 PZ  C   2   0.00145    -0.00139    -0.00029    -0.00280     0.00085     0.00064
  
  S  C   3   0.27879    -0.28237     0.09150    -0.16956     0.14715     0.21938
 PX  C   3   0.01062     0.03789    -0.14773    -0.13509     0.06425     0.06519
 PY  C   3   0.06353    -0.03761    -0.05913    -0.08900    -0.08888    -0.12416
 PZ  C   3  -0.00133     0.00318    -0.00568    -0.00281    -0.00149    -0.00395
  
  S  C   4   0.28228    -0.28398     0.09090    -0.14509    -0.17045    -0.19610
 PX  C   4   0.05709    -0.00713    -0.13533    -0.15328     0.01823     0.07069
 PY  C   4  -0.02450     0.05176    -0.09015    -0.04450    -0.11521    -0.13026
 PZ  C   4   0.00233    -0.00145    -0.00186    -0.00267    -0.00247    -0.00301
  
  S  C   5   0.15054    -0.21067     0.24918     0.13022    -0.14775    -0.26367
 PX  C   5   0.04804    -0.05091     0.01232    -0.05145    -0.03738    -0.02943
 PY  C   5  -0.03571     0.06206    -0.10618    -0.08750    -0.02938    -0.02155
 PZ  C   5  -0.00267     0.00437    -0.00669    -0.00472     0.00049     0.00167
  
  S  C   6   0.11795    -0.18981     0.29856     0.24763    -0.03564    -0.11507
 PX  C   6   0.05261    -0.07870     0.10352     0.05619    -0.00268    -0.00810
 PY  C   6   0.00411    -0.00311    -0.00618    -0.01786    -0.04792    -0.08863
 PZ  C   6   0.00052    -0.00063     0.00040    -0.00034    -0.00243    -0.00481
  
  S  C   7   0.24929    -0.15283    -0.14063    -0.23184     0.27621     0.23392
 PX  C   7  -0.03762     0.06751    -0.04064     0.07784     0.02733    -0.06142
 PY  C   7   0.08403    -0.02830    -0.08637    -0.05643    -0.00097    -0.03909
 PZ  C   7   0.00265     0.00020    -0.00402    -0.00075     0.00451     0.00058
  
  S  C   8   0.25316    -0.15024    -0.14620    -0.18065    -0.31039    -0.23265
 PX  C   8   0.05204     0.01369    -0.09865    -0.00329    -0.01341     0.05397
 PY  C   8  -0.07528     0.07231     0.00969     0.09815    -0.01047     0.02528
 PZ  C   8   0.00743    -0.00313    -0.00694    -0.00444    -0.00906    -0.00466
  
  S  C   9   0.33027    -0.02594    -0.29819     0.04004    -0.20330    -0.05928
 PX  C   9   0.01379     0.08739    -0.02079     0.18419     0.09070     0.07304
 PY  C   9  -0.05520     0.05387     0.04104     0.11114    -0.11630     0.00577
 PZ  C   9  -0.00973     0.00515     0.00870     0.00928     0.00724     0.00471
  
  S  C  10   0.32495    -0.03291    -0.29038    -0.00607     0.21638     0.03820
 PX  C  10  -0.04345     0.09090     0.02622     0.17917     0.08264    -0.04284
 PY  C  10   0.04341     0.04453    -0.04383     0.11422    -0.11653    -0.06637
 PZ  C  10   0.00499     0.00321    -0.00522     0.00822     0.00448    -0.00159
  
  S  C  11   0.21845     0.12680    -0.14167     0.21062     0.33458    -0.14466
 PX  C  11  -0.04237     0.03131     0.08366    -0.01228     0.00109    -0.08568
 PY  C  11   0.06577     0.07062    -0.01694     0.10239     0.00803    -0.04855
 PZ  C  11  -0.00098     0.00104     0.00241    -0.00014    -0.00014    -0.00218
  
  S  H  12   0.06680     0.03700    -0.04055     0.05064     0.16212    -0.06851
  
  S  C  13   0.23469     0.13968    -0.15346     0.27807    -0.27782     0.14256
 PX  C  13   0.03241     0.08028     0.03552     0.08070     0.01586     0.09365
 PY  C  13  -0.07190    -0.01024     0.08251    -0.06516    -0.02003     0.05904
 PZ  C  13  -0.00445    -0.00029     0.00468    -0.00205     0.00586     0.00115
  
  S  H  14   0.07603    -0.04718    -0.03728    -0.06873     0.14583     0.12149
  
  S  H  15   0.02875    -0.04920     0.08719     0.08452     0.02826     0.04227
  
  S  H  16   0.04382    -0.05924     0.06431     0.01938     0.08050     0.13146
  
  S  H  17   0.04576    -0.06158     0.06775     0.03383    -0.07872    -0.13242
  
  S  H  18   0.02986    -0.05086     0.08956     0.08876    -0.01675    -0.05318
  
  S  H  19   0.07932    -0.04339    -0.04517    -0.04028    -0.15888    -0.11523
  
  S  H  20   0.07381     0.04434    -0.04390     0.08367    -0.15185     0.07554
  
  S  C  21   0.15373     0.25775     0.19124    -0.14400     0.20116    -0.29773
 PX  C  21  -0.04694    -0.05832    -0.00629    -0.05707    -0.04508     0.02249
 PY  C  21   0.03830     0.07893     0.08339    -0.09629    -0.03266     0.01210
 PZ  C  21  -0.00022    -0.00031    -0.00008    -0.00027    -0.00040     0.00043
  
  S  C  22   0.12540     0.24036     0.23392    -0.26985     0.05630    -0.14236
 PX  C  22  -0.05447    -0.09659    -0.07762     0.05638    -0.00234     0.00490
 PY  C  22  -0.00645    -0.00822     0.00009    -0.01234    -0.06976     0.10915
 PZ  C  22   0.00102     0.00204     0.00218    -0.00287     0.00036    -0.00118
  
  S  C  23   0.12416     0.23742     0.22935    -0.25210    -0.11083     0.13747
 PX  C  23  -0.03414    -0.05736    -0.03900     0.00787     0.06026    -0.09564
 PY  C  23  -0.04373    -0.07974    -0.06886     0.06239    -0.02093     0.04735
 PZ  C  23   0.00251     0.00500     0.00507    -0.00567    -0.00315     0.00450
  
  S  C  24   0.15794     0.26154     0.18605    -0.10101    -0.22308     0.30006
 PX  C  24   0.00567     0.03442     0.06932    -0.12244     0.02799    -0.02838
 PY  C  24  -0.06079    -0.09159    -0.04795    -0.00361     0.01595    -0.01358
 PZ  C  24  -0.00402    -0.00655    -0.00466     0.00295     0.00450    -0.00564
  
  S  H  25   0.04500     0.07345     0.05223    -0.03999     0.10123    -0.14279
  
  S  H  26   0.03430     0.06957     0.07570    -0.10399     0.02739    -0.06955
  
  S  H  27   0.03285     0.06656     0.07210    -0.09462    -0.04593     0.06046
  
  S  H  28   0.04749     0.07582     0.04989    -0.01892    -0.10884     0.14570
  
  S  C  29   0.25845     0.30150     0.04430     0.15777     0.22513    -0.20312
 PX  C  29  -0.04090     0.01737     0.11711    -0.16701     0.02764    -0.08736
 PY  C  29   0.02947     0.06896     0.07109    -0.05067    -0.12330     0.09997
 PZ  C  29   0.00364     0.00548     0.00258     0.00107     0.00218    -0.00223
  
  S  C  30   0.26735     0.31045     0.03964     0.20059    -0.16602     0.20031
 PX  C  30  -0.00283     0.06248     0.12635    -0.15256     0.06679    -0.04369
 PY  C  30  -0.04595    -0.01691     0.06005    -0.09245    -0.12309     0.13797
 PZ  C  30  -0.00440    -0.00355     0.00180    -0.00456     0.00078     0.00042




    ROOT NO.    7           8           9          10          11          12

           -31.79341   -31.22828   -29.03980   -28.12249   -26.93077   -26.09109
  
  
  S  C   1   0.19770     0.26313    -0.19009     0.24275    -0.02264     0.20937
 PX  C   1   0.11231    -0.08551    -0.09748    -0.16674     0.02675     0.05769
 PY  C   1  -0.07164     0.02587     0.08573    -0.00325    -0.06468    -0.09796
 PZ  C   1  -0.00133    -0.00039     0.00360    -0.00610    -0.00262    -0.00756
  
  S  C   2   0.31391    -0.04280    -0.17767    -0.13750     0.11936     0.02108
 PX  C   2  -0.03521    -0.13875     0.12205    -0.10640     0.07206    -0.20704
 PY  C   2  -0.01299    -0.07440     0.05235    -0.08643    -0.08529    -0.08379
 PZ  C   2  -0.00398    -0.00694     0.00832    -0.00736    -0.00022    -0.01271
  
  S  C   3   0.08730    -0.25495     0.08994    -0.11951    -0.08892    -0.18634
 PX  C   3  -0.05466     0.03912     0.12910     0.16169     0.08515    -0.09129
 PY  C   3  -0.10334    -0.01597    -0.01250     0.08966    -0.19661     0.12293
 PZ  C   3  -0.00683     0.00366     0.00431     0.00566     0.00097     0.00094
  
  S  C   4  -0.09933    -0.26315    -0.10260    -0.11845    -0.10794     0.20174
 PX  C   4   0.10737     0.00989    -0.05220     0.16767    -0.10771    -0.04458
 PY  C   4  -0.01630     0.03452    -0.10159     0.08450     0.17046     0.11493
 PZ  C   4  -0.00212    -0.00069     0.00085    -0.00033     0.00018    -0.00062
  
  S  C   5  -0.30971    -0.04078     0.17431    -0.14300     0.11249    -0.04911
 PX  C   5   0.02889    -0.14783    -0.12847    -0.12994    -0.04364     0.20897
 PY  C   5   0.01215    -0.07551    -0.06525    -0.03591     0.09979     0.09760
 PZ  C   5   0.00209    -0.00220    -0.00120    -0.00068     0.00338    -0.00024
  
  S  C   6  -0.17341     0.26664     0.19512     0.23086    -0.01123    -0.19863
 PX  C   6   0.00241    -0.02969    -0.02930    -0.09649    -0.04402     0.06775
 PY  C   6  -0.14622    -0.07989     0.13575    -0.13763     0.06476    -0.13555
 PZ  C   6  -0.00875    -0.00383     0.00965    -0.00793     0.00381    -0.01196
  
  S  C   7  -0.14393     0.01612     0.23579     0.11563     0.18415    -0.03274
 PX  C   7  -0.11597     0.15142    -0.03660     0.00665     0.10555     0.20927
 PY  C   7  -0.06644     0.08985    -0.02228     0.08939    -0.16651     0.12409
 PZ  C   7  -0.00653     0.00551     0.00252     0.00151     0.00514     0.00563
  
  S  C   8   0.13937    -0.00612    -0.22479     0.11998     0.19388     0.02472
 PX  C   8   0.12719     0.15306     0.03437     0.08167    -0.06325    -0.20033
 PY  C   8   0.07428     0.07741     0.02334    -0.03847     0.19211    -0.11767
 PZ  C   8   0.00820     0.00627    -0.00323     0.00509     0.00352    -0.00912
  
  S  C   9   0.21643     0.24646    -0.01674    -0.01084    -0.07358    -0.19329
 PX  C   9  -0.06078     0.02453     0.10640    -0.18351    -0.12923     0.04010
 PY  C   9   0.13091    -0.03414     0.05106    -0.09735     0.21708    -0.11473
 PZ  C   9  -0.00678    -0.00745     0.00766    -0.01234     0.00261     0.00575
  
  S  C  10  -0.20065     0.26598     0.01709    -0.00701    -0.08998     0.18520
 PX  C  10  -0.07318    -0.00508    -0.09490    -0.18104     0.11364     0.08074
 PY  C  10   0.12678     0.02859    -0.07277    -0.09591    -0.21252    -0.12008
 PZ  C  10  -0.00389     0.00545    -0.00305    -0.00947    -0.00346     0.00354
  
  S  C  11  -0.18848     0.01515    -0.24345    -0.13107     0.18363     0.04646
 PX  C  11   0.08896    -0.15641    -0.07094     0.08998     0.07776    -0.17743
 PY  C  11   0.04879    -0.07531    -0.04519    -0.03145    -0.16662    -0.12360
 PZ  C  11   0.00249    -0.00510    -0.00204     0.00241     0.00436    -0.00486
  
  S  H  12  -0.09196     0.00343    -0.11122    -0.02419     0.21142     0.04008
  
  S  C  13   0.18136    -0.00719     0.24562    -0.12775     0.15118     0.00671
 PX  C  13  -0.10737    -0.14456     0.06752     0.02499    -0.11953     0.19064
 PY  C  13  -0.05485    -0.08950     0.04266     0.09844     0.15097     0.12889
 PZ  C  13  -0.00742    -0.00570    -0.00032     0.00182    -0.00596     0.00807
  
  S  H  14  -0.06324    -0.00089     0.11581     0.01140     0.22097    -0.02964
  
  S  H  15   0.08999     0.14539    -0.09903     0.18119     0.00866     0.13160
  
  S  H  16   0.14702    -0.02215    -0.07573    -0.05437     0.13182    -0.00763
  
  S  H  17  -0.14983    -0.02017     0.08278    -0.05534     0.12811    -0.02901
  
  S  H  18  -0.08954     0.14345     0.11707     0.16587     0.02236    -0.14567
  
  S  H  19   0.07537    -0.00207    -0.10371     0.01852     0.22942     0.00026
  
  S  H  20   0.08633    -0.01149     0.11990    -0.01734     0.19999     0.02188
  
  S  C  21   0.23857    -0.05822     0.16488     0.13277     0.11031     0.02801
 PX  C  21   0.05038     0.13748     0.15666    -0.13888     0.02917     0.19123
 PY  C  21   0.03163     0.07346     0.08870    -0.03938    -0.10983     0.07610
 PZ  C  21   0.00019     0.00123     0.00162    -0.00185     0.00132     0.00302
  
  S  C  22   0.17381     0.23790     0.22064    -0.23469    -0.03422     0.17269
 PX  C  22   0.01099     0.03226     0.04467    -0.10366     0.04290     0.08176
 PY  C  22  -0.11895     0.08267    -0.14755    -0.12779    -0.05862    -0.10871
 PZ  C  22   0.00177     0.00358     0.00320    -0.00439     0.00094     0.00441
  
  S  C  23  -0.15425     0.26466    -0.21955    -0.23655    -0.01213    -0.17478
 PX  C  23   0.10006     0.07082     0.10211    -0.16283    -0.03722     0.04419
 PY  C  23  -0.06300    -0.00830    -0.09663    -0.01782     0.07716    -0.07401
 PZ  C  23  -0.00553     0.00555    -0.00763    -0.00350     0.00134    -0.00491
  
  S  C  24  -0.24032    -0.02183    -0.16034     0.13219     0.11691     0.01457
 PX  C  24  -0.04090     0.14347    -0.15831    -0.10416    -0.05862    -0.18937
 PY  C  24  -0.01771     0.08327    -0.07713    -0.09588     0.09397    -0.07101
 PZ  C  24   0.00452    -0.00055     0.00430    -0.00196     0.00038     0.00315
  
  S  H  25   0.11171    -0.02497     0.07887     0.04443     0.12618     0.03379
  
  S  H  26   0.09516     0.13629     0.14083    -0.17858     0.00886     0.14195
  
  S  H  27  -0.07523     0.15009    -0.12480    -0.18174     0.01919    -0.11283
  
  S  H  28  -0.11176    -0.00790    -0.07126     0.04493     0.13054     0.02416
  
  S  C  29   0.02407    -0.24152    -0.14827     0.11907    -0.07545    -0.19067
 PX  C  29   0.09380    -0.02204     0.05019     0.16610     0.11315    -0.04645
 PY  C  29   0.02245    -0.02983     0.12648     0.08484    -0.17668     0.05856
 PZ  C  29   0.00097    -0.00609    -0.00061     0.00496    -0.00207    -0.00258
  
  S  C  30  -0.05026    -0.23780     0.12685     0.11871    -0.10774     0.14675
 PX  C  30  -0.06765    -0.02507    -0.14263     0.15885    -0.07071    -0.08113
 PY  C  30  -0.06536     0.00544     0.03909     0.09545     0.17735     0.13546
 PZ  C  30  -0.00220     0.00035    -0.00078     0.00301     0.00464     0.00363




    ROOT NO.   13          14          15          16          17          18

           -25.25167   -23.92628   -22.76477   -21.52945   -20.70024   -19.30904
  
  
  S  C   1   0.00685     0.13167     0.00004    -0.16944    -0.03465    -0.00983
 PX  C   1   0.05144    -0.24147    -0.00407     0.02582     0.20458     0.20713
 PY  C   1  -0.13656    -0.00367     0.20633     0.11419    -0.13010     0.18058
 PZ  C   1  -0.00697    -0.01141     0.01442     0.01582     0.00017     0.02701
  
  S  C   2   0.17127    -0.18532    -0.13787     0.11898     0.12058     0.02958
 PX  C   2   0.05121     0.03077    -0.06487     0.16672    -0.12708    -0.16500
 PY  C   2  -0.16514    -0.00282     0.22104     0.06874    -0.14864     0.07083
 PZ  C   2  -0.00510    -0.00030     0.00936     0.01172    -0.01278     0.00150
  
  S  C   3  -0.13471     0.09496     0.01866     0.09960    -0.06156    -0.15139
 PX  C   3   0.11632     0.15799    -0.15751    -0.10226    -0.00943    -0.01292
 PY  C   3  -0.18219     0.08122     0.02085    -0.10974     0.13689    -0.06439
 PZ  C   3   0.00146     0.00284    -0.00074    -0.00833     0.00006     0.00049
  
  S  C   4  -0.09009     0.10062     0.01578    -0.09535    -0.04524    -0.15091
 PX  C   4  -0.09328     0.14280    -0.08829     0.17423     0.10062    -0.05102
 PY  C   4   0.23017     0.08224    -0.15194    -0.00213    -0.07659     0.03173
 PZ  C   4   0.00079    -0.00360    -0.00209    -0.00506     0.00518    -0.00456
  
  S  C   5   0.15408    -0.16999    -0.11612    -0.12284     0.11091     0.01183
 PX  C   5  -0.05765     0.02316     0.14784    -0.17234    -0.17277    -0.03574
 PY  C   5   0.16291     0.03410    -0.17622    -0.11389    -0.00716    -0.18342
 PZ  C   5   0.00654    -0.00145    -0.01149    -0.00200     0.00783    -0.01130
  
  S  C   6  -0.04606     0.11578     0.00282     0.16777    -0.04983     0.01518
 PX  C   6  -0.07179    -0.12827     0.17664    -0.11013     0.00387     0.24182
 PY  C   6   0.08876    -0.19429    -0.11781     0.06858     0.22551     0.06102
 PZ  C   6   0.00503    -0.01384    -0.00844     0.01100     0.01802     0.00506
  
  S  C   7   0.12072     0.10606     0.07043    -0.19949    -0.06425     0.13994
 PX  C   7   0.05683    -0.13881     0.17567    -0.07402     0.02276     0.15414
 PY  C   7  -0.10395    -0.10115    -0.03789    -0.01267     0.22508     0.02340
 PZ  C   7   0.00333    -0.00285     0.00595    -0.00587    -0.00318     0.00341
  
  S  C   8   0.12994     0.10441     0.05332     0.19302    -0.08670     0.14833
 PX  C   8  -0.10544    -0.15031     0.06010     0.08314     0.16842     0.07793
 PY  C   8   0.07229    -0.05879     0.18227     0.04293    -0.10862     0.12723
 PZ  C   8  -0.00137    -0.00740     0.00405     0.00254     0.00942    -0.00002
  
  S  C   9  -0.01716    -0.21912    -0.00875    -0.00523    -0.00855    -0.02695
 PX  C   9   0.00928    -0.04690    -0.09594    -0.19003    -0.14411    -0.17173
 PY  C   9  -0.00107     0.08889     0.21020    -0.09825    -0.07513    -0.09235
 PZ  C   9   0.00097     0.00636     0.00116    -0.01794    -0.01074    -0.01925
  
  S  C  10   0.03036    -0.23321    -0.00833    -0.01355     0.00755     0.01359
 PX  C  10   0.02861     0.03394     0.11287     0.14895    -0.17273    -0.15520
 PY  C  10  -0.01794    -0.08468    -0.20178     0.08478    -0.10083    -0.10593
 PZ  C  10   0.00106    -0.00573    -0.00272     0.00459    -0.01018    -0.01516
  
  S  C  11  -0.12926     0.09587     0.06280     0.22853     0.06224    -0.15743
 PX  C  11  -0.12567     0.14825    -0.06723    -0.03430     0.18571     0.07003
 PY  C  11   0.05614     0.07587    -0.16910    -0.05659    -0.12030     0.14707
 PZ  C  11  -0.00590     0.00618    -0.00033     0.00265     0.01083    -0.00598
  
  S  H  12  -0.13514     0.05102     0.10952     0.13395     0.16062    -0.15104
  
  S  C  13  -0.12587     0.10068     0.06864    -0.20786     0.10516    -0.14021
 PX  C  13   0.03585     0.13262    -0.17760     0.08442     0.00168     0.17877
 PY  C  13  -0.10934     0.07564     0.03633     0.04480     0.22795     0.01787
 PZ  C  13   0.00213     0.00365    -0.00948     0.00327    -0.00431     0.00611
  
  S  H  14   0.14011     0.07321     0.10495    -0.10978    -0.16229     0.10349
  
  S  H  15   0.05001     0.16546    -0.10668    -0.16178    -0.03485    -0.21054
  
  S  H  16   0.19637    -0.08191    -0.21634     0.07073     0.10559    -0.08354
  
  S  H  17   0.18938    -0.07321    -0.20540    -0.07532     0.10412    -0.09663
  
  S  H  18   0.02363     0.13531    -0.11987     0.16611    -0.02097    -0.17217
  
  S  H  19   0.13656     0.06402     0.11894     0.09483    -0.15700     0.13200
  
  S  H  20  -0.13891     0.05437     0.10757    -0.09825     0.18693    -0.11631
  
  S  C  21  -0.15985    -0.18331    -0.08936    -0.15192    -0.09498    -0.01000
 PX  C  21  -0.08215    -0.02253    -0.12699     0.14557    -0.20573    -0.01791
 PY  C  21   0.18375    -0.02024     0.15001     0.10440    -0.02178    -0.16434
 PZ  C  21  -0.00343     0.00033    -0.00578     0.00377    -0.00591     0.00569
  
  S  C  22   0.03661     0.12621     0.00610     0.17073     0.03654    -0.02065
 PX  C  22  -0.10733     0.12365    -0.16802     0.12499    -0.03943     0.22779
 PY  C  22   0.09302     0.20515     0.09453    -0.02016     0.25476     0.04201
 PZ  C  22  -0.00305     0.00240    -0.00618     0.00757    -0.00599     0.00780
  
  S  C  23  -0.01152     0.13846     0.00134    -0.15972     0.07426     0.00988
 PX  C  23   0.03784     0.24443    -0.00214    -0.01208     0.21975     0.17593
 PY  C  23  -0.16411     0.00448    -0.18954    -0.13754    -0.13145     0.19672
 PZ  C  23  -0.00353    -0.00172    -0.00402    -0.00185    -0.00750     0.00099
  
  S  C  24  -0.15952    -0.19181    -0.09824     0.11485    -0.14295    -0.03246
 PX  C  24   0.06720    -0.02154     0.06433    -0.16943    -0.09261    -0.14284
 PY  C  24  -0.19331    -0.00854    -0.18746    -0.10278    -0.16225     0.07205
 PZ  C  24  -0.00203     0.00364    -0.00462     0.00376     0.00064     0.00856
  
  S  H  25  -0.20906    -0.08846    -0.17133    -0.08366    -0.10476     0.08734
  
  S  H  26  -0.04918     0.14285    -0.11077     0.17887    -0.01324     0.15972
  
  S  H  27  -0.07680     0.16345    -0.10459    -0.16814     0.04993     0.20251
  
  S  H  28  -0.21091    -0.09515    -0.17683     0.04646    -0.13800     0.07544
  
  S  C  29   0.08252     0.10574    -0.00550    -0.08295     0.04277     0.15141
 PX  C  29  -0.08705    -0.15790     0.08059    -0.17514     0.14132    -0.06826
 PY  C  29   0.25492    -0.07570     0.12232    -0.03403    -0.08595     0.03564
 PZ  C  29   0.00294     0.00190     0.00038    -0.00067     0.00171     0.00478
  
  S  C  30   0.13945     0.09573    -0.00269     0.10231     0.03028     0.15257
 PX  C  30   0.15324    -0.14670     0.14255     0.10940    -0.03008    -0.02676
 PY  C  30  -0.17658    -0.10064     0.00271     0.13557     0.13917    -0.08593
 PZ  C  30  -0.00565    -0.00272    -0.00287     0.00640     0.00274     0.00125




    ROOT NO.   19          20          21          22          23          24

           -18.40034   -17.29403   -16.92175   -16.71892   -15.88661   -15.37501
  
  
  S  C   1  -0.15969     0.00315    -0.02666     0.10011     0.05959     0.05205
 PX  C   1   0.04310    -0.18233     0.04712    -0.01956     0.21523     0.09357
 PY  C   1   0.13107     0.18737    -0.03771    -0.07920     0.17276     0.04815
 PZ  C   1   0.02328     0.00900     0.00398    -0.01626     0.02800     0.02525
  
  S  C   2   0.15376    -0.00065    -0.00862    -0.06134     0.00042     0.01121
 PX  C   2   0.13621     0.20052    -0.04585    -0.05701    -0.22777    -0.09708
 PY  C   2  -0.02816     0.08967    -0.16652     0.23603     0.02043     0.22194
 PZ  C   2   0.00834     0.01974    -0.00189     0.00164    -0.00870     0.02409
  
  S  C   3  -0.03393    -0.06919    -0.12749     0.19296    -0.05208     0.02526
 PX  C   3  -0.16449     0.02282    -0.01016     0.02056     0.23912    -0.09267
 PY  C   3  -0.05736    -0.27105     0.12507    -0.06402    -0.04477    -0.09306
 PZ  C   3  -0.01284     0.00756     0.01963    -0.00242    -0.01082     0.02570
  
  S  C   4   0.07202    -0.02058     0.12548    -0.17190    -0.09403    -0.03469
 PX  C   4   0.12496    -0.21211     0.04356     0.03691     0.12366     0.12618
 PY  C   4   0.10893     0.19357     0.02655    -0.11750     0.21691     0.07697
 PZ  C   4  -0.01595     0.00692     0.01606     0.00496    -0.02981     0.03276
  
  S  C   5  -0.18194     0.02335    -0.00147     0.06559    -0.01438    -0.00916
 PX  C   5  -0.00847     0.20495     0.01731    -0.15095    -0.14999    -0.12726
 PY  C   5  -0.09290     0.05207    -0.15843     0.20781    -0.08795     0.19853
 PZ  C   5  -0.00980    -0.00454    -0.00384     0.02098    -0.01796     0.03913
  
  S  C   6   0.16774     0.01975     0.03390    -0.11616     0.04677    -0.04346
 PX  C   6  -0.18814     0.08731     0.03228     0.02370     0.19884    -0.05485
 PY  C   6  -0.01619    -0.22703     0.10257    -0.02032     0.03011    -0.07367
 PZ  C   6   0.00718    -0.01913     0.00988    -0.00270    -0.00161     0.01755
  
  S  C   7  -0.10237    -0.02630     0.04107    -0.05491     0.06827    -0.02821
 PX  C   7   0.14178    -0.02617     0.10108    -0.14763    -0.19097     0.05983
 PY  C   7   0.09779    -0.14283    -0.23812     0.11192    -0.03648    -0.13342
 PZ  C   7  -0.00432     0.01200     0.02743    -0.00289    -0.01315     0.03529
  
  S  C   8   0.09573    -0.02988    -0.00575     0.04052     0.07794     0.02325
 PX  C   8  -0.18727    -0.01532     0.15436     0.01156    -0.17516     0.06309
 PY  C   8  -0.06815    -0.08033    -0.22817     0.21977    -0.09327    -0.16025
 PZ  C   8  -0.02043     0.00773     0.03316     0.00091    -0.03386     0.03943
  
  S  C   9  -0.14328     0.16573     0.14130    -0.01276    -0.09578     0.06545
 PX  C   9   0.05361     0.09464    -0.07690    -0.03010     0.08981    -0.05702
 PY  C   9  -0.06453    -0.23036     0.12149    -0.01191    -0.10978    -0.01913
 PZ  C   9  -0.00131     0.00445     0.02914     0.00242    -0.01552     0.03568
  
  S  C  10   0.14437     0.06599    -0.21905     0.01950    -0.05455    -0.06925
 PX  C  10   0.08123    -0.12032    -0.01172     0.03767    -0.04811     0.02365
 PY  C  10  -0.06759     0.26946     0.01991     0.00048     0.11206     0.05497
 PZ  C  10  -0.00258     0.02130     0.03122     0.01062    -0.01049     0.04396
  
  S  C  11  -0.08021    -0.03083     0.03921     0.03942     0.07930     0.01571
 PX  C  11  -0.19495     0.09854     0.12367    -0.03789     0.10748    -0.00105
 PY  C  11  -0.08097    -0.04585    -0.23973    -0.16829     0.10529    -0.20060
 PZ  C  11  -0.01256     0.01526     0.04879     0.01971    -0.00621     0.03656
  
  S  H  12  -0.05420     0.05767     0.26443     0.13465     0.00677     0.16219
  
  S  C  13   0.09072    -0.05683    -0.00190    -0.05671     0.09119    -0.00321
 PX  C  13   0.13836     0.08760     0.10976     0.14723     0.13098     0.12515
 PY  C  13   0.08843    -0.00030    -0.24589    -0.08316     0.06514    -0.06570
 PZ  C  13   0.00006     0.01520     0.03464     0.01595    -0.01208     0.03523
  
  S  H  14  -0.06941     0.08659     0.25119    -0.17341    -0.00877     0.11456
  
  S  H  15  -0.18509    -0.03064    -0.01375     0.11674    -0.20587    -0.05677
  
  S  H  16   0.14646     0.02100     0.10877    -0.23675    -0.10824    -0.20537
  
  S  H  17  -0.15358    -0.02706    -0.13479     0.25518    -0.01276     0.20172
  
  S  H  18   0.23349    -0.07081    -0.00721    -0.07794    -0.14798     0.02541
  
  S  H  19   0.06326    -0.07805    -0.24300     0.18393     0.04188    -0.13782
  
  S  H  20   0.05533    -0.06994    -0.24444    -0.15291     0.04903    -0.10143
  
  S  C  21   0.17328     0.01952     0.00831     0.07420     0.00574     0.03713
 PX  C  21  -0.01794    -0.14108     0.16433     0.15092     0.13980    -0.13080
 PY  C  21  -0.07773    -0.14334    -0.10285    -0.18529     0.11847     0.30346
 PZ  C  21  -0.00334     0.00022     0.02708     0.02092    -0.01355    -0.01441
  
  S  C  22  -0.14980     0.00075    -0.06000    -0.11351     0.04357     0.04483
 PX  C  22  -0.18097    -0.04060     0.01419    -0.04389    -0.22287    -0.14598
 PY  C  22  -0.01798     0.23270    -0.04378     0.01202    -0.05235    -0.14311
 PZ  C  22  -0.01217    -0.00529     0.01514     0.00576    -0.01703    -0.01300
  
  S  C  23   0.14753     0.02768     0.05118     0.10120     0.06100    -0.05086
 PX  C  23   0.08633     0.17113    -0.08849     0.02857    -0.19101     0.17074
 PY  C  23   0.13411    -0.15073     0.05044     0.07532    -0.16606     0.11648
 PZ  C  23  -0.00447    -0.00537     0.01317     0.00470    -0.00778    -0.00380
  
  S  C  24  -0.15603     0.00705    -0.01267    -0.06235    -0.01023    -0.04725
 PX  C  24   0.08670    -0.16744     0.12658     0.05639     0.21870    -0.16473
 PY  C  24  -0.02007    -0.16258    -0.13236    -0.21792     0.01485     0.25895
 PZ  C  24  -0.00705     0.00779     0.00643     0.00024    -0.02207     0.02092
  
  S  H  25   0.13164     0.05715     0.15863     0.24310    -0.02384    -0.26958
  
  S  H  26  -0.22039    -0.03633    -0.01562    -0.09331    -0.16920    -0.10526
  
  S  H  27   0.20164    -0.00983     0.02074     0.11869    -0.18080     0.13964
  
  S  H  28  -0.12300    -0.05084    -0.16507    -0.22321    -0.08226     0.24658
  
  S  C  29  -0.06659    -0.07643    -0.13862    -0.15793    -0.08710     0.01028
 PX  C  29   0.13687     0.18897    -0.08390    -0.03090    -0.10246     0.14357
 PY  C  29   0.11371    -0.14583     0.09668     0.08440    -0.19485     0.11523
 PZ  C  29  -0.00472     0.00631     0.03555     0.01913    -0.02147     0.01907
  
  S  C  30   0.03953     0.00829     0.15191     0.16951    -0.09012    -0.00561
 PX  C  30  -0.15467    -0.03332    -0.03500    -0.02847    -0.21129    -0.12806
 PY  C  30  -0.05049     0.27599    -0.02283     0.06201     0.02033    -0.10141
 PZ  C  30  -0.00823     0.02027     0.02600     0.01447    -0.02058     0.02115




    ROOT NO.   25          26          27          28          29          30

           -14.98924   -14.83900   -14.72021   -14.47675   -13.70569   -13.44215
  
  
  S  C   1  -0.00588    -0.03830     0.00946     0.01518     0.04259    -0.01413
 PX  C   1  -0.24928     0.02371    -0.14006    -0.04211     0.11009    -0.06701
 PY  C   1  -0.07431     0.14137     0.22187    -0.03647     0.06814    -0.05476
 PZ  C   1  -0.05749     0.06045     0.01578     0.11446    -0.06364    -0.22238
  
  S  C   2  -0.06894     0.06225     0.05052    -0.02724    -0.02695     0.00984
 PX  C   2   0.20807     0.01426     0.17001     0.00831    -0.12963     0.10377
 PY  C   2  -0.20500    -0.08994     0.04484    -0.03187    -0.04438     0.10486
 PZ  C   2  -0.03161     0.04979     0.01143     0.15605    -0.09119    -0.21464
  
  S  C   3   0.01833    -0.01152    -0.04532     0.01284     0.02092    -0.01041
 PX  C   3   0.16442     0.09983     0.00569     0.01902     0.23445    -0.13712
 PY  C   3   0.02191    -0.01311    -0.17964     0.01008     0.01026    -0.06523
 PZ  C   3  -0.03038     0.08249    -0.01547     0.27178    -0.11006    -0.26914
  
  S  C   4  -0.04935    -0.02297    -0.04559    -0.01204     0.01421    -0.00941
 PX  C   4  -0.11542    -0.10661    -0.06266     0.02501     0.12419     0.00932
 PY  C   4  -0.05591     0.02681     0.14631    -0.00324     0.17336    -0.01221
 PZ  C   4  -0.03901     0.07906    -0.00069     0.27231    -0.13330    -0.26156
  
  S  C   5   0.09459    -0.03144     0.05831     0.02261    -0.02292     0.00953
 PX  C   5   0.04483     0.12109     0.05134    -0.02966    -0.11335    -0.03331
 PY  C   5  -0.26467     0.02780     0.17130    -0.06261    -0.08010     0.00459
 PZ  C   5  -0.05427     0.04192     0.00888     0.15631    -0.10516    -0.21718
  
  S  C   6   0.00931     0.05324    -0.00119    -0.00652     0.04370    -0.02222
 PX  C   6   0.28177    -0.04154     0.10207     0.07627     0.11562    -0.00121
 PY  C   6   0.11331    -0.12199    -0.24364     0.03120     0.05698     0.05565
 PZ  C   6  -0.03907     0.03223    -0.01809     0.12258    -0.08087    -0.20639
  
  S  C   7  -0.04524     0.02847    -0.03412    -0.02603    -0.02213    -0.00370
 PX  C   7  -0.18702    -0.06606     0.00415    -0.04747    -0.24703     0.13948
 PY  C   7   0.06508     0.31195     0.11692    -0.08069    -0.08257     0.01071
 PZ  C   7  -0.03437     0.08147    -0.02648     0.25211    -0.06137    -0.13380
  
  S  C   8   0.04335    -0.04779    -0.03073     0.01126    -0.01314     0.03173
 PX  C   8   0.06498    -0.18426     0.17040     0.04008    -0.19724     0.06008
 PY  C   8   0.13728     0.13322    -0.19155    -0.01656    -0.13698    -0.01667
 PZ  C   8  -0.03431     0.07427     0.00379     0.25398    -0.08388    -0.12610
  
  S  C   9  -0.02277     0.00291    -0.01174    -0.01857    -0.00113    -0.01434
 PX  C   9  -0.07867     0.18858    -0.19039    -0.10793     0.20494    -0.06941
 PY  C   9  -0.06921     0.09207    -0.06777    -0.08553     0.06225    -0.04580
 PZ  C   9  -0.04793     0.14846    -0.05171     0.29042    -0.00071    -0.00766
  
  S  C  10   0.00313    -0.00084     0.00140     0.01136     0.01362     0.01462
 PX  C  10   0.03427    -0.26342    -0.07752     0.11448     0.18236    -0.06279
 PY  C  10   0.04190    -0.14209    -0.07496     0.04540     0.13863    -0.04439
 PZ  C  10  -0.02869     0.11999    -0.04278     0.30035     0.00401    -0.01752
  
  S  C  11   0.07160    -0.03862     0.03400     0.03245     0.02056    -0.02269
 PX  C  11  -0.02255     0.22350     0.06702    -0.13037    -0.18962     0.04514
 PY  C  11  -0.11756    -0.20582    -0.04649     0.13376    -0.16254     0.07004
 PZ  C  11  -0.01437     0.13936    -0.01734     0.19678     0.04550     0.14299
  
  S  H  12   0.10975     0.23731     0.07305    -0.12762     0.06488    -0.03745
  
  S  C  13  -0.04324     0.05734     0.03739    -0.01143     0.00594     0.02443
 PX  C  13   0.13514     0.01874    -0.09171    -0.04913    -0.28430     0.08613
 PY  C  13   0.03222    -0.21516     0.24543     0.17277    -0.01286     0.05045
 PZ  C  13  -0.02458     0.12473    -0.05700     0.21886     0.02597     0.16217
  
  S  H  14  -0.13790    -0.24666    -0.10137     0.04345    -0.04936     0.03878
  
  S  H  15   0.18526    -0.14267    -0.08259     0.04276    -0.08884     0.10285
  
  S  H  16   0.21447     0.10000     0.06337     0.01396    -0.03805    -0.02870
  
  S  H  17  -0.18205    -0.03428     0.14179    -0.01803    -0.04073     0.00924
  
  S  H  18  -0.24841     0.06090    -0.10534    -0.06918    -0.09062    -0.01355
  
  S  H  19   0.10025     0.15007    -0.22249    -0.02276    -0.03437    -0.02089
  
  S  H  20  -0.04203    -0.15606     0.23998     0.13765     0.11193     0.00289
  
  S  C  21   0.04827    -0.06036    -0.05581     0.02555     0.01099    -0.00676
 PX  C  21   0.02854    -0.09047     0.12768     0.06216    -0.12119     0.00202
 PY  C  21   0.22362     0.04646     0.07243     0.01629    -0.06537     0.02842
 PZ  C  21  -0.03142     0.07933    -0.00553     0.14434     0.08370     0.25440
  
  S  C  22   0.00488     0.03745    -0.03889    -0.02341    -0.06253     0.01598
 PX  C  22  -0.18292     0.11240     0.12778    -0.06843     0.17000    -0.04052
 PY  C  22  -0.15845    -0.01499    -0.21554    -0.03145    -0.00361     0.00803
 PZ  C  22  -0.03102     0.06956     0.00459     0.10983     0.08323     0.23542
  
  S  C  23   0.00489    -0.04759     0.01498     0.01852    -0.05567     0.00697
 PX  C  23   0.12822    -0.09820    -0.17440     0.03908     0.10022    -0.06170
 PY  C  23   0.12142    -0.00435     0.21247     0.02940     0.15359    -0.05850
 PZ  C  23  -0.02332     0.06676    -0.00598     0.11188     0.07222     0.23884
  
  S  C  24  -0.06634     0.03349    -0.05999    -0.02088     0.02275    -0.00266
 PX  C  24  -0.09558     0.07489     0.20265    -0.01127    -0.12982     0.09453
 PY  C  24   0.10328     0.09190    -0.06631    -0.05075    -0.10854     0.04591
 PZ  C  24  -0.01483     0.08049    -0.03757     0.14614     0.08080     0.25701
  
  S  H  25  -0.13567    -0.09675    -0.02541     0.03019     0.01071    -0.01736
  
  S  H  26  -0.16058     0.12509     0.10058    -0.06715     0.13557    -0.01626
  
  S  H  27   0.15400    -0.07567     0.08280     0.05525     0.15119    -0.07015
  
  S  H  28   0.08876     0.05208    -0.16383    -0.03867    -0.01067    -0.00388
  
  S  C  29  -0.04124     0.00597     0.05844     0.00062    -0.00141     0.00729
 PX  C  29   0.01721     0.06419    -0.16022    -0.06061     0.12739    -0.02196
 PY  C  29   0.06423     0.06905     0.12106    -0.03610     0.19923    -0.07043
 PZ  C  29  -0.02831     0.13811    -0.02467     0.22474     0.09492     0.29173
  
  S  C  30   0.03636     0.01862     0.04482    -0.01608    -0.00139    -0.01404
 PX  C  30  -0.09373    -0.05618     0.11094     0.04981     0.28781    -0.10958
 PY  C  30  -0.04181    -0.09587    -0.15061     0.01622     0.02488    -0.04211
 PZ  C  30  -0.03035     0.12978    -0.05519     0.23632     0.08711     0.29976




    ROOT NO.   31          32          33          34          35          36

           -13.06028   -12.91684   -12.15266   -11.84996   -11.75813   -11.38298
  
  
  S  C   1   0.02218     0.01058     0.01037    -0.00583     0.00673    -0.00920
 PX  C   1  -0.13552    -0.15591    -0.08313     0.00576     0.00098    -0.14224
 PY  C   1   0.22961    -0.15674     0.18219    -0.08140    -0.09566    -0.04798
 PZ  C   1   0.01795     0.00238     0.03965    -0.11715     0.31054     0.08694
  
  S  C   2   0.00691    -0.01414    -0.03134     0.03550     0.00262     0.02449
 PX  C   2   0.11824     0.15527     0.04235     0.03443    -0.02148     0.15355
 PY  C   2  -0.12908     0.15008    -0.19990     0.14656     0.04900     0.08967
 PZ  C   2  -0.00008     0.06207     0.00931    -0.07980     0.23562     0.09946
  
  S  C   3   0.00528     0.04270    -0.00115     0.00595     0.01019    -0.01598
 PX  C   3   0.02095    -0.14216    -0.10250     0.04263     0.06725    -0.23753
 PY  C   3   0.06452    -0.13644     0.26484    -0.20746    -0.09976    -0.04906
 PZ  C   3  -0.01742     0.07927    -0.00801    -0.03521     0.05073     0.02911
  
  S  C   4  -0.01407    -0.03769     0.00763     0.00025    -0.00153     0.01110
 PX  C   4   0.17098     0.17516     0.18592    -0.03238    -0.06732     0.23357
 PY  C   4   0.02246     0.10283    -0.21920     0.21336     0.09467     0.06695
 PZ  C   4   0.00147     0.06310    -0.00948     0.02090     0.07327    -0.00482
  
  S  C   5   0.01847     0.00772    -0.02854     0.01357     0.02382    -0.04039
 PX  C   5  -0.16307    -0.20658    -0.16244     0.01845     0.06119    -0.22082
 PY  C   5   0.11657    -0.16435     0.13819    -0.09000    -0.07317    -0.06433
 PZ  C   5   0.01480     0.03696     0.03077    -0.06408     0.24564     0.06298
  
  S  C   6   0.02334    -0.01584     0.01527     0.00068    -0.01201     0.00755
 PX  C   6   0.21394     0.17491     0.11797    -0.00441    -0.01696     0.13746
 PY  C   6  -0.18038     0.18640    -0.16436     0.10733     0.03803     0.07222
 PZ  C   6  -0.01454     0.03822     0.01027    -0.08663     0.33094     0.09332
  
  S  C   7  -0.01372    -0.07244    -0.02356     0.04139     0.01647     0.00491
 PX  C   7  -0.00519     0.08798     0.09026    -0.01534    -0.05895     0.24065
 PY  C   7   0.11323    -0.02721    -0.11412     0.18488     0.04964     0.06828
 PZ  C   7  -0.02984     0.07432    -0.01985     0.00098    -0.17602     0.00065
  
  S  C   8   0.02569     0.07691    -0.01091     0.03260     0.02900    -0.01088
 PX  C   8   0.07700    -0.11162    -0.04228     0.01328     0.06079    -0.25758
 PY  C   8  -0.13397    -0.09092     0.11331    -0.17260    -0.06804    -0.07085
 PZ  C   8   0.02319     0.03618    -0.03094     0.13288    -0.11991    -0.06912
  
  S  C   9  -0.03393    -0.05505    -0.00430     0.02244    -0.01473    -0.00204
 PX  C   9  -0.10324     0.04380     0.06448    -0.05916    -0.04403     0.27595
 PY  C   9   0.25942    -0.08386    -0.00540     0.26612     0.09911     0.05546
 PZ  C   9   0.02051     0.03351    -0.02179     0.18832    -0.29389    -0.04136
  
  S  C  10  -0.02857     0.05794     0.00735    -0.00635     0.01177    -0.00274
 PX  C  10   0.18185     0.01531     0.04798     0.07284     0.08227    -0.26601
 PY  C  10  -0.22723     0.03019     0.05960    -0.26058    -0.05954    -0.04754
 PZ  C  10  -0.02591     0.05614    -0.03588     0.05254    -0.32994    -0.04603
  
  S  C  11   0.00245    -0.07735     0.00752     0.04488     0.01997    -0.03388
 PX  C  11  -0.17239    -0.06928    -0.02826    -0.03781    -0.05138     0.25948
 PY  C  11   0.03764    -0.14079     0.08795     0.17393     0.01311     0.06206
 PZ  C  11  -0.03032    -0.00246    -0.04256    -0.05579    -0.15778     0.00657
  
  S  H  12  -0.10570     0.05007    -0.09624    -0.17348    -0.04692     0.05711
  
  S  C  13   0.02399     0.07216     0.01960     0.05015     0.01850     0.00395
 PX  C  13  -0.00762     0.10807     0.09070    -0.00680     0.04899    -0.22258
 PY  C  13  -0.16260     0.03921    -0.06964    -0.20411    -0.06608    -0.09160
 PZ  C  13   0.03104    -0.02389     0.01871     0.14155    -0.10950    -0.04198
  
  S  H  14  -0.10541     0.02868     0.13463    -0.16912    -0.07992     0.05594
  
  S  H  15  -0.09622     0.21918    -0.09954     0.07558     0.04062     0.11422
  
  S  H  16   0.16656    -0.06441     0.19130    -0.10567    -0.06356     0.00806
  
  S  H  17   0.17934    -0.04434     0.19449    -0.09702    -0.07267     0.03288
  
  S  H  18  -0.20886    -0.17203    -0.11907     0.00469     0.02378    -0.13522
  
  S  H  19  -0.13104     0.00719     0.12041    -0.16266    -0.08094     0.05475
  
  S  H  20  -0.12176     0.02303    -0.10259    -0.18751    -0.07200     0.03245
  
  S  C  21   0.02759    -0.01746     0.02168     0.01995     0.01638    -0.03644
 PX  C  21   0.01295    -0.23886    -0.17033    -0.04832    -0.06518     0.19736
 PY  C  21  -0.18248    -0.11966     0.13906     0.11043     0.02783     0.06208
 PZ  C  21   0.00552    -0.05450    -0.00132    -0.14257     0.19178     0.02018
  
  S  C  22   0.01971     0.00011    -0.01710    -0.00292    -0.00852     0.01341
 PX  C  22  -0.09094     0.24381     0.13014     0.03383     0.01144    -0.12848
 PY  C  22   0.24734     0.10764    -0.16736    -0.13100    -0.01202    -0.06653
 PZ  C  22  -0.00698    -0.03893     0.03726    -0.12896     0.26597     0.00786
  
  S  C  23   0.00241    -0.00473    -0.01100    -0.00687    -0.01460    -0.01668
 PX  C  23   0.09981    -0.22613    -0.11037    -0.01032    -0.01067     0.14146
 PY  C  23  -0.24332    -0.06282     0.18434     0.13012     0.01686     0.03145
 PZ  C  23   0.00279    -0.05182     0.04994    -0.08401     0.27732     0.00600
  
  S  C  24   0.02828    -0.00268     0.02541     0.04228     0.01452     0.02862
 PX  C  24  -0.08921     0.22413     0.07662    -0.03320     0.02359    -0.16039
 PY  C  24   0.15661     0.10253    -0.18697    -0.17439    -0.02497    -0.08027
 PZ  C  24   0.02516    -0.07903     0.03479    -0.03985     0.21810     0.01438
  
  S  H  25   0.17223    -0.02541    -0.20561    -0.13068    -0.04398     0.03399
  
  S  H  26  -0.08315     0.23251     0.12536     0.02384     0.02506    -0.12357
  
  S  H  27  -0.14431    -0.17604     0.09004     0.09807     0.00920     0.10164
  
  S  H  28   0.18672    -0.01932    -0.19899    -0.13240    -0.02845     0.02505
  
  S  C  29  -0.01063     0.03983    -0.00311     0.00108    -0.01113     0.00866
 PX  C  29  -0.01458     0.21411     0.19064     0.07246     0.07183    -0.21265
 PY  C  29   0.05000     0.11197    -0.19842    -0.23090    -0.04634    -0.06345
 PZ  C  29  -0.00126    -0.05117    -0.01491    -0.08901     0.02654     0.00874
  
  S  C  30  -0.01650    -0.03046    -0.01205    -0.00467    -0.00067    -0.00893
 PX  C  30  -0.03182    -0.14711    -0.10900    -0.03692    -0.06157     0.21834
 PY  C  30  -0.08195    -0.11787     0.23812     0.24817     0.05283     0.05006
 PZ  C  30   0.02256    -0.07903     0.03597     0.04545     0.05740    -0.00486




    ROOT NO.   37          38          39          40          41          42

           -10.54135    -9.88667    -9.73213    -8.35026    -8.08390    -6.86860
  
  
  S  C   1  -0.00015    -0.00599     0.00271     0.00359     0.00365     0.00246
 PX  C   1   0.00126     0.02224    -0.00824    -0.00980    -0.02157    -0.00924
 PY  C   1   0.00976     0.03803    -0.02492    -0.02858    -0.02975    -0.02158
 PZ  C   1  -0.05947    -0.31110     0.20407     0.23586     0.26585     0.18254
  
  S  C   2  -0.00835     0.00732     0.00168    -0.00071    -0.00299     0.00089
 PX  C   2   0.00514     0.00169    -0.01688    -0.01842     0.00707    -0.00778
 PY  C   2  -0.00495     0.00490    -0.01282    -0.01570     0.00282    -0.00593
 PZ  C   2  -0.16324    -0.10675     0.34520     0.37873     0.00981     0.21060
  
  S  C   3  -0.00799     0.00583     0.00996     0.00714    -0.00755    -0.00122
 PX  C   3  -0.01193    -0.01406    -0.00012    -0.00861     0.00904    -0.00519
 PY  C   3   0.03055    -0.00329    -0.00578     0.00864     0.00510     0.00678
 PZ  C   3  -0.19956     0.26044     0.22984     0.06330    -0.35919    -0.14010
  
  S  C   4  -0.00393    -0.00253     0.00021     0.00051     0.00268     0.00414
 PX  C   4   0.01733     0.02163    -0.01801     0.00481    -0.01255     0.01115
 PY  C   4  -0.02633     0.01078    -0.00924    -0.01216    -0.01115    -0.00015
 PZ  C   4   0.16829     0.25504    -0.26210    -0.02390    -0.36587     0.12306
  
  S  C   5  -0.00598    -0.01207     0.00441    -0.00431     0.00645    -0.00481
 PX  C   5  -0.00749    -0.01583     0.00369    -0.01189     0.00399    -0.01072
 PY  C   5  -0.01596     0.00800     0.02960     0.02397     0.00090     0.00986
 PZ  C   5   0.18587    -0.12268    -0.32549    -0.37436    -0.01079    -0.21048
  
  S  C   6   0.00295     0.01178    -0.00579     0.00111    -0.00858     0.00351
 PX  C   6   0.00973    -0.00245    -0.01235    -0.00495     0.00456    -0.00005
 PY  C   6  -0.00612     0.01959     0.00800     0.02299    -0.01486     0.01793
 PZ  C   6   0.11169    -0.32150    -0.16109    -0.26249     0.25171    -0.17132
  
  S  C   7  -0.00408    -0.00557    -0.01132    -0.00088     0.00369     0.01361
 PX  C   7   0.01349     0.00626    -0.01031     0.00812    -0.00081     0.01498
 PY  C   7  -0.05004     0.01233     0.00520    -0.01675     0.00471    -0.00625
 PZ  C   7  -0.31626     0.19429     0.24718    -0.22301     0.01491    -0.35360
  
  S  C   8  -0.02155    -0.01046     0.00816    -0.01702    -0.00578    -0.01613
 PX  C   8  -0.05468    -0.03954     0.03791    -0.02089     0.00586    -0.02574
 PY  C   8   0.03610    -0.00141    -0.00089     0.01353     0.00844     0.00604
 PZ  C   8   0.27583     0.19424    -0.27665     0.21731     0.01557     0.35990
  
  S  C   9   0.00963     0.00179    -0.00417     0.01667     0.03187     0.00431
 PX  C   9   0.01868     0.02439    -0.01182    -0.01073    -0.03142    -0.00341
 PY  C   9  -0.09191     0.00750    -0.00646    -0.02553    -0.02130     0.00382
 PZ  C   9   0.23308    -0.00352    -0.07009     0.21031     0.37977     0.03395
  
  S  C  10   0.01117    -0.00369    -0.00336     0.00816    -0.02054     0.00077
 PX  C  10  -0.03359    -0.02205    -0.00296     0.00160    -0.00839     0.00735
 PY  C  10   0.08490    -0.00362    -0.00141     0.02670    -0.02048    -0.00053
 PZ  C  10  -0.24667    -0.01543     0.06394    -0.24444     0.36848    -0.01450
  
  S  C  11  -0.01162    -0.00111     0.00038     0.00114     0.00342    -0.00630
 PX  C  11   0.04939     0.03640     0.00363     0.02117    -0.00069    -0.02407
 PY  C  11  -0.07061    -0.02035    -0.01806    -0.01937    -0.00065     0.02523
 PZ  C  11  -0.31370    -0.25743    -0.13183    -0.23067    -0.04388     0.39315
  
  S  H  12   0.05912     0.01351     0.00694     0.00813    -0.00329    -0.00078
  
  S  C  13   0.00080    -0.00350     0.00554     0.00219    -0.00878    -0.01656
 PX  C  13  -0.02978     0.00101    -0.00805    -0.00529     0.01234     0.02107
 PY  C  13   0.07039    -0.02301     0.01835     0.01811     0.00916    -0.01197
 PZ  C  13   0.33277    -0.21536     0.15533     0.22403    -0.01485    -0.37872
  
  S  H  14   0.03771     0.00092     0.00086     0.00823    -0.00265    -0.00418
  
  S  H  15  -0.00088    -0.00814     0.00045     0.00061     0.00626     0.00076
  
  S  H  16   0.01022     0.00100    -0.00504    -0.00479     0.00084    -0.00440
  
  S  H  17   0.00202     0.00283     0.00456     0.00158     0.00005    -0.00182
  
  S  H  18  -0.00513    -0.00287     0.00611    -0.00242     0.00041    -0.00506
  
  S  H  19   0.05051     0.00992    -0.01042     0.01530     0.00119     0.00770
  
  S  H  20   0.05638    -0.00558     0.00896     0.00284    -0.00036     0.00620
  
  S  C  21  -0.01351    -0.00180    -0.00373    -0.00364    -0.00112     0.00647
 PX  C  21   0.03457     0.01295     0.01635    -0.00349     0.00765    -0.00337
 PY  C  21  -0.03164     0.00729    -0.02109     0.01129     0.00106    -0.00762
 PZ  C  21  -0.26202     0.10195    -0.34166     0.30087     0.03351    -0.22876
  
  S  C  22   0.00288    -0.00621     0.00442    -0.00552    -0.00610     0.00659
 PX  C  22   0.00376    -0.02970     0.01135    -0.01018    -0.01642     0.00951
 PY  C  22   0.01815     0.00492     0.00658    -0.00085     0.00546     0.00059
 PZ  C  22  -0.15082     0.32727    -0.21397     0.21214     0.25064    -0.20969
  
  S  C  23  -0.00222    -0.01895    -0.00651     0.01248    -0.00871    -0.01306
 PX  C  23  -0.00146     0.02848    -0.00294    -0.00469     0.01158     0.00482
 PY  C  23  -0.01879    -0.00869    -0.00682     0.00051    -0.00691    -0.00003
 PZ  C  23   0.11458     0.37552     0.17611    -0.22039     0.22429     0.21428
  
  S  C  24  -0.00524     0.00802     0.00880    -0.01834    -0.00210     0.01607
 PX  C  24   0.02480    -0.00692     0.02515    -0.01289    -0.00195     0.01003
 PY  C  24   0.02848    -0.00351     0.00252     0.01314     0.00195    -0.01063
 PZ  C  24   0.24364     0.18375     0.32544    -0.29913    -0.00454     0.22543
  
  S  H  25   0.03385     0.00596     0.01175     0.00158     0.00481    -0.00528
  
  S  H  26  -0.00420    -0.01141    -0.00057     0.00187    -0.00268    -0.00251
  
  S  H  27  -0.01518     0.01360    -0.00626    -0.00370     0.00594     0.00488
  
  S  H  28   0.01776     0.00707    -0.00397     0.01179     0.00316    -0.01096
  
  S  C  29   0.00817     0.00523     0.00746     0.00004     0.01306    -0.00767
 PX  C  29  -0.03203    -0.01260    -0.00815    -0.00299    -0.00527     0.00562
 PY  C  29   0.07328     0.00652     0.02159     0.00950     0.00625    -0.01223
 PZ  C  29  -0.23980    -0.29551    -0.19788     0.00738    -0.31471     0.17145
  
  S  C  30   0.00919    -0.00207     0.00738     0.00110    -0.00353    -0.00220
 PX  C  30   0.02888     0.00617     0.00124     0.00456    -0.00496    -0.00917
 PY  C  30  -0.07678     0.01014    -0.02804    -0.00789     0.01224     0.01262
 PZ  C  30   0.24792    -0.24416     0.22304     0.00373    -0.31558    -0.17535




    ROOT NO.   43          44          45          46          47          48

            -0.86910     0.25364     0.36869     1.31570     1.40047     1.81281
  
  
  S  C   1  -0.00423    -0.00233    -0.00931    -0.01179     0.00511    -0.00012
 PX  C   1   0.01372     0.01590     0.01436     0.01111    -0.01735     0.00534
 PY  C   1   0.01925     0.02960     0.02245     0.01999    -0.03413     0.00607
 PZ  C   1  -0.19592    -0.27071    -0.23330    -0.20705     0.31275    -0.06079
  
  S  C   2   0.00254    -0.00772     0.01048     0.01396     0.00455    -0.00111
 PX  C   2  -0.01243    -0.00624    -0.01713    -0.01417     0.00722    -0.00879
 PY  C   2  -0.01073    -0.00826    -0.01380    -0.01031     0.00809    -0.00758
 PZ  C   2   0.21295     0.03376     0.37966     0.34893    -0.10739     0.15995
  
  S  C   3  -0.00332     0.01034    -0.01499    -0.02075    -0.00009     0.00383
 PX  C   3  -0.00574    -0.00339     0.00259     0.01679     0.00693     0.01947
 PY  C   3  -0.00014    -0.00607     0.00402     0.00245     0.00535     0.00346
 PZ  C   3   0.14865     0.34995    -0.08721    -0.24697    -0.26235    -0.20282
  
  S  C   4  -0.00834     0.00104     0.00014     0.02352    -0.01336     0.00027
 PX  C   4  -0.00393    -0.00692    -0.00142     0.00125     0.00162    -0.00467
 PY  C   4  -0.00392    -0.00114    -0.00357     0.00040    -0.00250    -0.00352
 PZ  C   4   0.12196    -0.36583    -0.01560    -0.26657     0.26665    -0.17051
  
  S  C   5   0.00394    -0.00323     0.00138    -0.01082     0.01264     0.00219
 PX  C   5   0.00997    -0.00103     0.01092     0.00112     0.00954     0.00526
 PY  C   5  -0.01171     0.00040    -0.02217    -0.01983    -0.00829    -0.01093
 PZ  C   5   0.21289     0.01978     0.36891     0.31945     0.12952     0.17637
  
  S  C   6  -0.00014    -0.00602     0.00197     0.00565     0.00402    -0.00119
 PX  C   6  -0.00693     0.00442    -0.00813    -0.00242    -0.00950    -0.00346
 PY  C   6   0.00693    -0.01804     0.01372     0.01014     0.02077     0.00602
 PZ  C   6  -0.16990     0.23744    -0.26327    -0.15308    -0.33022    -0.10258
  
  S  C   7   0.01476    -0.00798     0.02307    -0.00302    -0.01407    -0.04406
 PX  C   7   0.00870    -0.00260     0.00466    -0.01751    -0.00669    -0.02532
 PY  C   7  -0.00765    -0.00392     0.00206     0.00518     0.00088    -0.00865
 PZ  C   7  -0.35156     0.00631    -0.21942     0.25139     0.17162     0.31072
  
  S  C   8   0.02454    -0.00947     0.00596    -0.02649     0.01836     0.01149
 PX  C   8   0.02709    -0.00687     0.00655    -0.01678     0.01280     0.00735
 PY  C   8  -0.00596     0.00093    -0.00103     0.00644    -0.00346     0.00319
 PZ  C   8  -0.35793    -0.02597    -0.20782     0.27764    -0.19898     0.27927
  
  S  C   9  -0.00781     0.03246     0.02611     0.00715    -0.01618    -0.07684
 PX  C   9   0.00083    -0.02852    -0.00122     0.00070     0.00420    -0.01182
 PY  C   9  -0.00493    -0.01076    -0.01363     0.01063    -0.00504     0.01317
 PZ  C   9   0.04187     0.39627     0.19201    -0.08326    -0.00052    -0.23613
  
  S  C  10  -0.00433     0.01028    -0.03303     0.00457     0.00585     0.07678
 PX  C  10   0.00414     0.01672    -0.00331    -0.00099    -0.00645     0.00741
 PY  C  10   0.00243     0.00482    -0.01182     0.00194     0.00017     0.02210
 PZ  C  10   0.00961    -0.35113     0.27587    -0.06283     0.03035    -0.25675
  
  S  C  11  -0.00416     0.00187     0.01393     0.01062     0.01116    -0.06079
 PX  C  11  -0.02719     0.00952     0.00333     0.01360     0.01731    -0.00750
 PY  C  11   0.01969    -0.00114    -0.01263    -0.00147    -0.01117     0.00642
 PZ  C  11   0.38559    -0.07059    -0.22231    -0.13013    -0.25508     0.31842
  
  S  H  12   0.00497    -0.00335    -0.00888    -0.00762    -0.01187     0.03844
  
  S  C  13   0.01622    -0.01181    -0.01715    -0.02304     0.02339     0.07654
 PX  C  13  -0.01746     0.00949     0.01687    -0.00118    -0.01278    -0.01262
 PY  C  13   0.01193     0.01054    -0.00042    -0.00522     0.00236    -0.00217
 PZ  C  13   0.37237    -0.00234    -0.22831    -0.13642     0.19799     0.33784
  
  S  H  14  -0.00702     0.00214    -0.01189     0.00506     0.01134     0.02790
  
  S  H  15   0.00146     0.00411     0.00593     0.00926    -0.00864     0.00049
  
  S  H  16  -0.00037     0.00815    -0.00368    -0.00588    -0.00742    -0.00018
  
  S  H  17   0.00071     0.00641     0.00128     0.00603    -0.01022    -0.00090
  
  S  H  18   0.00388     0.00789     0.00313    -0.00011    -0.00727     0.00207
  
  S  H  19  -0.00995     0.00214    -0.00323     0.01310    -0.00574    -0.00147
  
  S  H  20  -0.00967     0.00351     0.01220     0.01257    -0.01634    -0.04809
  
  S  C  21   0.00092     0.00059    -0.00271     0.01461    -0.00816    -0.03392
 PX  C  21   0.01110    -0.00819    -0.01064     0.00341    -0.00969     0.00884
 PY  C  21  -0.00627    -0.00141     0.00744    -0.00846    -0.00283     0.00773
 PZ  C  21  -0.22422     0.05760     0.29330    -0.33016     0.11606     0.26780
  
  S  C  22  -0.00624     0.01588     0.00304    -0.00683     0.03081     0.01687
 PX  C  22  -0.01143     0.00946     0.01147    -0.00928     0.00921     0.00221
 PY  C  22   0.00638     0.00146    -0.00651     0.00706     0.00588    -0.00748
 PZ  C  22   0.20976    -0.26519    -0.19048     0.19751    -0.33580    -0.15136
  
  S  C  23  -0.00878    -0.01819     0.00981     0.00052    -0.03828    -0.01578
 PX  C  23   0.00730     0.00165    -0.00559    -0.00055     0.00217     0.00650
 PY  C  23  -0.00691     0.00102     0.00692    -0.00639     0.00133     0.00614
 PZ  C  23   0.21992     0.21010    -0.24043     0.18471     0.36909    -0.11456
  
  S  C  24  -0.00468     0.00511     0.00927    -0.02686     0.00635     0.04606
 PX  C  24  -0.00997     0.00731     0.00946    -0.00364     0.00513    -0.00450
 PY  C  24  -0.00089     0.00123    -0.00267     0.01176     0.00234    -0.01894
 PZ  C  24  -0.22741     0.01383     0.30488    -0.32903    -0.18051     0.24684
  
  S  H  25   0.00260    -0.00199     0.00078    -0.00901     0.00478     0.01971
  
  S  H  26   0.00196    -0.00943    -0.00060     0.00363    -0.01854    -0.01017
  
  S  H  27   0.00798     0.00937    -0.00788     0.00001     0.02282     0.01046
  
  S  H  28   0.00474    -0.00405    -0.00812     0.01701    -0.00156    -0.02608
  
  S  C  29   0.01127    -0.01274    -0.00108    -0.02895    -0.01010     0.06544
 PX  C  29  -0.00302    -0.00058     0.00468     0.00091    -0.00042    -0.00944
 PY  C  29   0.00574    -0.00411     0.00242    -0.00972    -0.00005     0.01062
 PZ  C  29  -0.17031     0.32354    -0.03250     0.19898     0.29510    -0.24091
  
  S  C  30  -0.01223     0.00296     0.00162     0.03410    -0.00413    -0.07116
 PX  C  30   0.00815    -0.00132    -0.00944     0.00371     0.01142     0.00232
 PY  C  30   0.01166     0.00455    -0.00357    -0.01106     0.00256     0.01939
 PZ  C  30  -0.18498    -0.31213     0.02387     0.22597    -0.24207    -0.27203




    ROOT NO.   49          50          51          52          53          54

             2.40757     2.50261     2.87763     3.13416     3.33774     3.40364
  
  
  S  C   1  -0.01800     0.14793    -0.21807    -0.09102    -0.16943     0.18959
 PX  C   1   0.01465     0.03391    -0.02845    -0.00919     0.02970     0.06334
 PY  C   1   0.03812     0.01760    -0.03530     0.02912    -0.05182    -0.02986
 PZ  C   1  -0.33691    -0.00291     0.05174    -0.20402     0.01814    -0.10300
  
  S  C   2   0.01697    -0.20753     0.25485     0.10973     0.09153    -0.23962
 PX  C   2  -0.00853    -0.02793     0.00452    -0.01008    -0.05464     0.00179
 PY  C   2  -0.00505    -0.05971     0.04849     0.00543    -0.01535    -0.02195
 PZ  C   2   0.24248    -0.00297    -0.05249     0.21537    -0.02838     0.11473
  
  S  C   3  -0.02502     0.27271    -0.26634    -0.07677    -0.00387     0.13325
 PX  C   3   0.00029    -0.00745     0.07001     0.02034     0.11114     0.04229
 PY  C   3   0.00719     0.01950    -0.00635     0.04770    -0.01106    -0.13820
 PZ  C   3  -0.04926     0.01064     0.05358    -0.27159     0.04407    -0.16861
  
  S  C   4   0.01147    -0.25615     0.25808    -0.02432     0.11578     0.20010
 PX  C   4   0.00196    -0.02366    -0.02264     0.00483    -0.08169    -0.03290
 PY  C   4  -0.00757     0.01875    -0.05779    -0.04694    -0.01299     0.12386
 PZ  C   4   0.06471    -0.00490    -0.01410     0.28027    -0.01984     0.17408
  
  S  C   5  -0.01106     0.17366    -0.21942     0.01684    -0.19722    -0.17225
 PX  C   5  -0.00855     0.06129    -0.04240     0.01502     0.00774    -0.07567
 PY  C   5   0.01681    -0.00789     0.01896     0.02419     0.03054    -0.01693
 PZ  C   5  -0.27161     0.00151     0.03108    -0.23163     0.01678    -0.10774
  
  S  C   6  -0.00195    -0.12970     0.20035     0.02079     0.22590     0.02173
 PX  C   6   0.01197    -0.03222     0.03507     0.01027     0.01718     0.00204
 PY  C   6  -0.02459    -0.00545    -0.00621    -0.04515    -0.00425     0.09976
 PZ  C   6   0.35671    -0.00541    -0.03513     0.21518    -0.00908     0.10363
  
  S  C   7   0.02444    -0.24495     0.10492     0.01008    -0.22754    -0.13950
 PX  C   7  -0.00129     0.02599    -0.09954    -0.03914    -0.09379     0.01895
 PY  C   7  -0.00317    -0.05096    -0.02620    -0.00630    -0.08644    -0.00517
 PZ  C   7  -0.17092    -0.04480    -0.01534     0.13258    -0.05613     0.09505
  
  S  C   8   0.00361     0.23070    -0.10881     0.07744     0.05027    -0.27203
 PX  C   8   0.00691     0.02845     0.07430     0.04403     0.10333    -0.04164
 PY  C   8   0.00431    -0.04422     0.06190     0.00046     0.03665     0.02244
 PZ  C   8   0.15842    -0.01540    -0.02999    -0.13370     0.00438    -0.12777
  
  S  C   9  -0.04007    -0.25780    -0.02991    -0.12688    -0.24542     0.28515
 PX  C   9   0.01383    -0.02487    -0.07685    -0.00491    -0.06626    -0.05021
 PY  C   9  -0.00550     0.02602    -0.03055    -0.02865     0.12646     0.10897
 PZ  C   9  -0.34094     0.07908     0.05513     0.02313     0.03135     0.03367
  
  S  C  10  -0.00861     0.28273     0.03767     0.02785     0.39831     0.08261
 PX  C  10  -0.01195     0.00538     0.07915    -0.02982     0.00409     0.10582
 PY  C  10   0.00970     0.01326     0.04235     0.04396     0.01744    -0.13237
 PZ  C  10   0.34255     0.04135    -0.00892    -0.00741     0.04951    -0.05789
  
  S  C  11  -0.00209    -0.25099    -0.16488     0.03956    -0.21243    -0.21385
 PX  C  11  -0.00298     0.04984    -0.05345     0.02618     0.14669    -0.00831
 PY  C  11  -0.01481    -0.03678    -0.06167     0.00091     0.04962    -0.02531
 PZ  C  11  -0.12497    -0.05180    -0.01239    -0.15663     0.00554     0.00126
  
  S  H  12  -0.00082     0.13882     0.10324    -0.01929     0.12527     0.10364
  
  S  C  13   0.04664     0.21649     0.13890     0.12773     0.02256    -0.27091
 PX  C  13  -0.00763     0.00799     0.08308    -0.02707    -0.11400     0.05296
 PY  C  13  -0.00337    -0.05179     0.00850    -0.01805    -0.06650     0.05533
 PZ  C  13   0.13821    -0.09713    -0.06469     0.13965    -0.03690     0.02939
  
  S  H  14  -0.01305     0.12655    -0.06129     0.01597     0.13033     0.03622
  
  S  H  15   0.01947    -0.09320     0.13312     0.06435     0.09781    -0.12941
  
  S  H  16  -0.00426     0.11704    -0.15883    -0.06241    -0.07767     0.13285
  
  S  H  17   0.00952    -0.09928     0.13677    -0.00263     0.12482     0.08266
  
  S  H  18   0.00703     0.08213    -0.12562    -0.00760    -0.14514    -0.02338
  
  S  H  19   0.00148    -0.12705     0.06490    -0.02904    -0.05107     0.12109
  
  S  H  20  -0.02819    -0.11859    -0.08277    -0.07494    -0.03735     0.13488
  
  S  C  21  -0.03861    -0.15597    -0.22058     0.07504     0.11608    -0.19439
 PX  C  21  -0.00551     0.06371     0.05808     0.00703     0.02156     0.04720
 PY  C  21  -0.00125     0.00073    -0.00742     0.00272     0.03203     0.00629
 PZ  C  21   0.22980    -0.05944    -0.03380    -0.26857     0.05241    -0.03769
  
  S  C  22   0.05144     0.09899     0.16520    -0.08575    -0.16636     0.11355
 PX  C  22   0.00320    -0.03326    -0.04362    -0.00216     0.03467    -0.01374
 PY  C  22   0.00624    -0.01291    -0.00305     0.00349    -0.05209    -0.06061
 PZ  C  22  -0.29108     0.05009     0.03683     0.24202    -0.06083     0.04211
  
  S  C  23  -0.05602    -0.09880    -0.16988     0.04119     0.23805     0.03984
 PX  C  23  -0.00037     0.02337     0.02251     0.02653    -0.01740    -0.05069
 PY  C  23   0.00699     0.01849     0.03241    -0.02083    -0.02804     0.04264
 PZ  C  23   0.28383    -0.00831    -0.01496    -0.23743     0.06461    -0.03498
  
  S  C  24   0.02784     0.15147     0.22717     0.02595    -0.25698    -0.09986
 PX  C  24   0.00280    -0.02871    -0.01977    -0.02358    -0.01702     0.02719
 PY  C  24  -0.00361    -0.04574    -0.04889    -0.01648     0.02186     0.02164
 PZ  C  24  -0.22097    -0.04045    -0.03281     0.25602    -0.02984     0.04809
  
  S  H  25   0.02590     0.08601     0.13609    -0.04335    -0.09608     0.10071
  
  S  H  26  -0.03051    -0.06027    -0.09709     0.05484     0.09038    -0.07722
  
  S  H  27   0.03485     0.06100     0.10251    -0.02112    -0.14735    -0.03735
  
  S  H  28  -0.01385    -0.08543    -0.14132    -0.00550     0.16407     0.03342
  
  S  C  29   0.03055     0.24224     0.28864    -0.05140    -0.06162     0.19664
 PX  C  29   0.00498    -0.03643    -0.00148    -0.03044    -0.04638     0.04579
 PY  C  29   0.01182     0.00438     0.05696     0.02472    -0.13074    -0.09449
 PZ  C  29  -0.05733     0.05061     0.02324     0.31420    -0.04584     0.04400
  
  S  C  30  -0.03553    -0.22684    -0.28235    -0.05493     0.19537     0.10478
 PX  C  30   0.00451    -0.00105    -0.06193     0.04832     0.07433    -0.11110
 PY  C  30   0.00221     0.03316     0.02621    -0.01743     0.05522     0.09111
 PZ  C  30   0.04864     0.06738     0.05512    -0.30705     0.04050    -0.04673




    ROOT NO.   55          56          57          58          59          60

             3.57441     3.71477     3.78007     3.90148     4.20687     4.31728
  
  
  S  C   1  -0.14908    -0.28040    -0.21416    -0.08030    -0.05255     0.04960
 PX  C   1  -0.01536     0.09262     0.04806    -0.11749    -0.05384     0.06604
 PY  C   1   0.02745    -0.07549    -0.02938     0.09130     0.04184    -0.01710
 PZ  C   1  -0.10916     0.01868     0.00562     0.02723     0.00756     0.00327
  
  S  C   2   0.13576    -0.00996     0.02090     0.27475     0.13381    -0.16825
 PX  C   2  -0.03865    -0.15947    -0.11305     0.04180     0.00409     0.00668
 PY  C   2  -0.02152    -0.08542    -0.06670    -0.00069    -0.02756     0.06949
 PZ  C   2   0.14009    -0.03164    -0.00935    -0.03308    -0.01223     0.01003
  
  S  C   3  -0.00428     0.27931     0.19273    -0.15966    -0.03324    -0.09814
 PX  C   3   0.00817     0.00391    -0.04901     0.01462     0.03099    -0.16984
 PY  C   3   0.09710     0.06296     0.08723     0.13464     0.06129    -0.01914
 PZ  C   3  -0.25910     0.04053    -0.00087     0.06367     0.02462    -0.01814
  
  S  C   4  -0.14414    -0.21134    -0.23738    -0.10800    -0.03400    -0.05592
 PX  C   4   0.02493    -0.09195    -0.01777     0.14638     0.07501    -0.13081
 PY  C   4  -0.03416     0.06731     0.04859    -0.06990    -0.00454    -0.15122
 PZ  C   4   0.25656    -0.06042    -0.02047    -0.05691    -0.01882     0.00684
  
  S  C   5   0.10408    -0.08714     0.04365     0.30862     0.14640    -0.20563
 PX  C   5   0.05320     0.14156     0.11532    -0.02081    -0.02494     0.03934
 PY  C   5   0.03743     0.07446     0.05732     0.00618     0.01413    -0.04703
 PZ  C   5  -0.14944     0.03155     0.00963     0.02456     0.00778    -0.00832
  
  S  C   6   0.02970     0.33260     0.18165    -0.20010    -0.07609     0.03051
 PX  C   6   0.00046    -0.00726    -0.00988    -0.00336    -0.00278     0.04048
 PY  C   6  -0.08188    -0.06734    -0.08006    -0.10999    -0.06020     0.08170
 PZ  C   6   0.11330    -0.01673    -0.00623    -0.03100    -0.00988     0.00499
  
  S  C   7  -0.00543    -0.15006     0.04156     0.05826    -0.03148     0.38809
 PX  C   7  -0.01268     0.09883     0.11299    -0.07546    -0.03914     0.01046
 PY  C   7   0.00816     0.02047     0.04937    -0.03725    -0.02588    -0.06393
 PZ  C   7   0.24585    -0.05518     0.00177    -0.04841    -0.02914     0.03952
  
  S  C   8   0.10318     0.08922     0.03323     0.03910    -0.03273     0.38949
 PX  C   8  -0.02301    -0.07609    -0.13523    -0.05136    -0.04346    -0.01560
 PY  C   8  -0.03131    -0.04756    -0.05820    -0.02959    -0.02014     0.05714
 PZ  C   8  -0.23483     0.06344     0.01865     0.05488     0.02054     0.02418
  
  S  C   9  -0.00162     0.07114     0.22940     0.01861     0.11813    -0.10569
 PX  C   9   0.02920     0.05981     0.06299     0.04447     0.01978     0.16768
 PY  C   9   0.00695     0.03248    -0.05322     0.07040     0.14779     0.00961
 PZ  C   9   0.31803    -0.09212    -0.04722    -0.07024    -0.05153     0.01792
  
  S  C  10  -0.01272    -0.02344    -0.21286     0.05242     0.12007    -0.05743
 PX  C  10   0.00727    -0.05125     0.06551     0.07852     0.13062     0.11862
 PY  C  10   0.00567    -0.06452    -0.06213     0.01268    -0.06441     0.15517
 PZ  C  10  -0.31514     0.06912     0.00273     0.06786     0.05346    -0.00739
  
  S  C  11   0.01493     0.10454    -0.07966    -0.13222    -0.28777    -0.17005
 PX  C  11  -0.01757     0.02783    -0.13821    -0.02558     0.02898    -0.03442
 PY  C  11   0.02253     0.01955    -0.07514    -0.01927     0.07724     0.03122
 PZ  C  11   0.22655    -0.04548    -0.02079    -0.04968    -0.04073    -0.01519
  
  S  H  12   0.00033    -0.08905     0.05692     0.06597     0.25703     0.17003
  
  S  C  13  -0.05970    -0.14362    -0.03225    -0.14243    -0.30269    -0.14196
 PX  C  13  -0.00440    -0.03048     0.12573    -0.06095     0.06137    -0.03164
 PY  C  13  -0.02285     0.00921     0.05886    -0.02468    -0.02777    -0.06039
 PZ  C  13  -0.23484     0.08537     0.02182     0.06576     0.06415     0.02112
  
  S  H  14   0.02477     0.09210    -0.03739    -0.02386     0.00617    -0.32780
  
  S  H  15   0.09962     0.17361     0.13817     0.05365     0.02950     0.01109
  
  S  H  16  -0.08468    -0.00173    -0.01095    -0.18873    -0.10816     0.18547
  
  S  H  17  -0.06261     0.05725    -0.02927    -0.21210    -0.11648     0.20996
  
  S  H  18  -0.01654    -0.21560    -0.11765     0.12499     0.04150     0.03108
  
  S  H  19  -0.05631    -0.07675    -0.02983    -0.01081     0.00663    -0.32561
  
  S  H  20   0.05524     0.09686     0.01996     0.07090     0.26329     0.14952
  
  S  C  21  -0.01535    -0.09742    -0.02010    -0.29683     0.32108    -0.01373
 PX  C  21  -0.03288    -0.09698     0.15319    -0.00715     0.03944    -0.00964
 PY  C  21  -0.01290    -0.06357     0.08896     0.01625    -0.06294    -0.01059
 PZ  C  21   0.15626    -0.05704     0.00594    -0.04484    -0.00209    -0.00746
  
  S  C  22   0.06951     0.27372    -0.28330     0.18041    -0.08118     0.04933
 PX  C  22   0.00177    -0.02364     0.01527    -0.01506     0.03372     0.01100
 PY  C  22   0.01972     0.06488    -0.12035    -0.10242     0.13062    -0.00379
 PZ  C  22  -0.11657     0.06874    -0.03126     0.04170     0.00537     0.00905
  
  S  C  23  -0.06493    -0.25438     0.33081     0.07557    -0.11339     0.00548
 PX  C  23  -0.01941    -0.06838     0.07228    -0.11499     0.10713    -0.01953
 PY  C  23   0.01558     0.06558    -0.05943     0.07702    -0.04439     0.02290
 PZ  C  23   0.11287    -0.07854     0.04701    -0.02957    -0.01722    -0.00646
  
  S  C  24  -0.00062     0.04643    -0.05502    -0.27725     0.30266    -0.03793
 PX  C  24   0.02870     0.11816    -0.15206     0.05574    -0.00960     0.01589
 PY  C  24   0.01492     0.05383    -0.07670     0.00613     0.07195     0.00663
 PZ  C  24  -0.15304     0.06412    -0.01083     0.06103    -0.00207     0.01175
  
  S  H  25   0.01227     0.06883     0.00749     0.19637    -0.28700    -0.00802
  
  S  H  26  -0.04244    -0.16074     0.16582    -0.10541     0.00410    -0.04391
  
  S  H  27   0.03906     0.15526    -0.20867    -0.04903     0.03533    -0.01458
  
  S  H  28  -0.00088    -0.03532     0.02512     0.18250    -0.27037     0.01337
  
  S  C  29  -0.03593    -0.12990     0.30050     0.13109    -0.03408     0.03096
 PX  C  29   0.02354     0.08111    -0.04959     0.12710    -0.16996    -0.00146
 PY  C  29  -0.01251    -0.03276     0.06129    -0.11561    -0.08479    -0.08705
 PZ  C  29  -0.26200     0.06188     0.03134     0.06905     0.02208     0.01430
  
  S  C  30   0.05570     0.16351    -0.22988     0.20247     0.00937     0.08697
 PX  C  30  -0.01173    -0.02701    -0.06086    -0.01531    -0.15288    -0.03977
 PY  C  30  -0.01419    -0.05941     0.12252     0.13906    -0.11007     0.03274
 PZ  C  30   0.26141    -0.09330     0.00075    -0.07496    -0.03598    -0.01881




    ROOT NO.   61          62          63          64          65          66

             5.24363     5.41831     5.67551     5.69226     6.14438     6.49809
  
  
  S  C   1   0.06542    -0.30245     0.09880    -0.04920    -0.04386    -0.01158
 PX  C   1  -0.10698     0.11034    -0.15227     0.07866     0.10663     0.04806
 PY  C   1   0.04237     0.29827    -0.00355    -0.00055    -0.00222    -0.00409
 PZ  C   1   0.00148     0.05922    -0.01077     0.00511     0.00788     0.00419
  
  S  C   2   0.13941    -0.09813     0.17481    -0.08892    -0.11252    -0.05010
 PX  C   2   0.07002    -0.21597     0.09051    -0.04465    -0.04069    -0.01180
 PY  C   2  -0.03227     0.07802    -0.14415     0.07514     0.20045     0.16603
 PZ  C   2  -0.00393    -0.01633    -0.00352     0.00205     0.00544     0.00447
  
  S  C   3  -0.04163     0.04533     0.07566    -0.04567    -0.16694    -0.14854
 PX  C   3   0.14503     0.01905     0.07182    -0.03939     0.06857     0.10398
 PY  C   3   0.04136    -0.05492     0.10923    -0.05421    -0.13033    -0.09606
 PZ  C   3   0.01203    -0.00178     0.00124    -0.00028     0.00980     0.01051
  
  S  C   4   0.03297     0.02208    -0.06865     0.03520     0.13485     0.10452
 PX  C   4  -0.12699    -0.02082    -0.12629     0.06830     0.07256     0.03447
 PY  C   4  -0.10073     0.07159     0.00176    -0.00865    -0.14834    -0.16849
 PZ  C   4  -0.00223     0.00808    -0.00149     0.00082    -0.00018    -0.00048
  
  S  C   5  -0.16760    -0.07371    -0.16559     0.09047     0.10721     0.04713
 PX  C   5  -0.01363    -0.04501     0.05640    -0.03245    -0.10399    -0.08252
 PY  C   5  -0.11937    -0.18982    -0.13147     0.07361     0.13099     0.08844
 PZ  C   5  -0.00455    -0.00734    -0.00629     0.00349     0.00811     0.00666
  
  S  C   6  -0.12757    -0.28634    -0.08451     0.04642     0.05481     0.02427
 PX  C   6   0.09948     0.28524     0.08253    -0.04679    -0.07328    -0.03618
 PY  C   6   0.09469    -0.08293     0.11847    -0.06242    -0.07443    -0.02736
 PZ  C   6   0.00076    -0.02981     0.00568    -0.00271    -0.00313    -0.00137
  
  S  C   7  -0.22261    -0.04014    -0.08993     0.04900    -0.09718    -0.14176
 PX  C   7  -0.06810    -0.02139     0.04188    -0.02978    -0.12962    -0.13309
 PY  C   7   0.06341     0.01567     0.07506    -0.05175     0.08657     0.24068
 PZ  C   7  -0.02004    -0.00398    -0.00516     0.00203    -0.01357    -0.01888
  
  S  C   8   0.21839    -0.07956     0.07655    -0.03380     0.10405     0.13990
 PX  C   8  -0.02410    -0.00792    -0.09923     0.03865     0.00538    -0.15660
 PY  C   8   0.07365    -0.04604     0.01809    -0.00520     0.12043     0.20744
 PZ  C   8   0.02096    -0.00839     0.00242    -0.00089     0.01076     0.00380
  
  S  C   9  -0.01635     0.03607     0.13408    -0.04727    -0.02462     0.18474
 PX  C   9   0.15006    -0.03818     0.04925    -0.02437     0.08171     0.10621
 PY  C   9   0.10829    -0.00392    -0.08375     0.07441     0.06610    -0.16541
 PZ  C   9   0.00180    -0.00434    -0.01594     0.00453     0.00425    -0.02030
  
  S  C  10   0.03583     0.01325    -0.10773     0.08181     0.01587    -0.15921
 PX  C  10  -0.16484     0.01388     0.04861    -0.00402    -0.09939     0.08274
[...]
  S   H   18   -0.0898   -0.0439   -0.0321   -0.0324   -0.0088    0.3184    0.0036   -0.0900
  S   H   19   -0.1362   -0.2644    0.2834    0.0796    0.1521    0.0562   -0.0141    0.1606
  S   H   20    0.1926   -0.2443    0.2408   -0.1948   -0.0153   -0.0085    0.0556   -0.1875
  S   C   21    0.1228   -0.0338   -0.0147    0.0103   -0.0004    0.0003    0.0777   -0.0027
  Px  C   21    0.1415   -0.0765   -0.1650    0.1242    0.2939    0.0012   -0.1009    0.0810
  Py  C   21   -0.1613    0.0706    0.0577   -0.0487   -0.0887    0.0005    0.2724    0.0313
  Pz  C   21    0.0061   -0.0038   -0.0079    0.0061    0.0107    0.0000   -0.0114    0.0010
  S   C   22    0.0676   -0.0174    0.0396   -0.0273   -0.0582   -0.0001   -0.0795   -0.0359
  Px  C   22    0.0641   -0.0188    0.0418   -0.0333   -0.0545    0.0021    0.5061    0.1722
  Py  C   22    0.0924   -0.0222   -0.0291    0.0192    0.0497    0.0007   -0.0585   -0.0361
  Pz  C   22    0.0061   -0.0013    0.0029   -0.0022   -0.0027    0.0001    0.0211    0.0061
  S   C   23   -0.0551    0.0107    0.0392   -0.0275   -0.0549    0.0002    0.0844    0.0183
  Px  C   23   -0.1150    0.0293   -0.0017   -0.0027    0.0200   -0.0016   -0.2091    0.0138
  Py  C   23    0.0081   -0.0032    0.0599   -0.0448   -0.0885   -0.0013   -0.4420   -0.1250
  Pz  C   23   -0.0063    0.0013    0.0038   -0.0026   -0.0064    0.0000    0.0008   -0.0016
  S   C   24   -0.1302    0.0378   -0.0151    0.0100    0.0072   -0.0003   -0.0790    0.0358
  Px  C   24    0.0618   -0.0188   -0.0347    0.0222    0.0692   -0.0009   -0.1660    0.0053
  Py  C   24   -0.2087    0.1086   -0.1593    0.1195    0.2982   -0.0008    0.2152   -0.1459
  Pz  C   24    0.0072   -0.0015   -0.0005    0.0005    0.0032    0.0000    0.0141   -0.0037
  S   H   25   -0.2229    0.0905    0.1131   -0.0881   -0.1794   -0.0001    0.1619   -0.0105
  S   H   26   -0.0968    0.0290   -0.0396    0.0302    0.0456   -0.0015   -0.3342   -0.1145
  S   H   27    0.0818   -0.0204   -0.0475    0.0365    0.0544    0.0014    0.3087    0.0637
  S   H   28    0.2268   -0.0950    0.1038   -0.0786   -0.1828    0.0003   -0.1488    0.0792
  S   C   29    0.1712   -0.0942   -0.1223    0.0858    0.2623   -0.0005    0.0128    0.0171
  Px  C   29   -0.0928    0.0318   -0.0214    0.0132    0.1169    0.0024   -0.1173    0.1067
  Py  C   29    0.1703   -0.1221    0.0356   -0.0123   -0.1655   -0.0022   -0.0320    0.0923
  Pz  C   29    0.0118   -0.0052    0.0009   -0.0011    0.0126    0.0000    0.0006    0.0047
  S   C   30   -0.1708    0.0959   -0.1158    0.0772    0.2697    0.0006   -0.0113   -0.0066
  Px  C   30   -0.0918    0.0851    0.0331   -0.0175   -0.0745    0.0007    0.0909   -0.2034
  Py  C   30    0.1719   -0.0944   -0.0374    0.0210    0.1685   -0.0029    0.0856   -0.0709
  Pz  C   30    0.0048   -0.0025   -0.0038    0.0038   -0.0030    0.0000    0.0039   -0.0014


   Root No.      73        74        75        76        77        78        79        80

                30 a      31 a      26 b      32 a      27 b      28 b      29 b      30 b   

                 9.398     9.619    10.088    10.703    10.935    11.725    11.797    12.190
  
  S   C    1    0.0471   -0.0701   -0.0527   -0.0793   -0.0339    0.0153    0.0069    0.0034
  Px  C    1    0.1765   -0.2165    0.0599   -0.2258    0.1231   -0.2214    0.0630    0.2018
  Py  C    1    0.0610   -0.1047   -0.2075   -0.0766   -0.1711    0.1812   -0.0272   -0.1320
  Pz  C    1    0.0162   -0.0229   -0.0175   -0.0204   -0.0105    0.0062    0.0008   -0.0020
  S   C    2   -0.0829    0.0785   -0.0727    0.0413   -0.0752    0.0745    0.0106   -0.0107
  Px  C    2    0.1600   -0.2125   -0.0085   -0.2541    0.0501   -0.1570    0.0847    0.2151
  Py  C    2   -0.2268    0.1622   -0.2113   -0.0268   -0.1622    0.0911    0.0888    0.1106
  Pz  C    2   -0.0035   -0.0013   -0.0080   -0.0101   -0.0034   -0.0039    0.0067    0.0129
  S   C    3   -0.0253    0.0457   -0.0107    0.0574   -0.0349    0.0439    0.0101    0.0039
  Px  C    3   -0.1918    0.1253   -0.2338   -0.0592   -0.0367   -0.1447   -0.1645   -0.1658
  Py  C    3   -0.0790    0.0154   -0.1661   -0.0965   -0.2025    0.1640    0.2667    0.3493
  Pz  C    3   -0.0040    0.0008   -0.0095   -0.0060   -0.0042   -0.0012    0.0009    0.0027
  S   C    4   -0.0266    0.0441    0.0150    0.0581    0.0331   -0.0332   -0.0080    0.0019
  Px  C    4   -0.1352    0.1322    0.2778   -0.1019    0.1900   -0.0911   -0.1191   -0.2088
  Py  C    4   -0.0854    0.1134    0.1085    0.0109   -0.0834    0.2046    0.2930    0.3342
  Pz  C    4    0.0017   -0.0015   -0.0035    0.0036   -0.0008    0.0005   -0.0023   -0.0001
  S   C    5   -0.0724    0.0854    0.0745    0.0483    0.0760   -0.0752   -0.0110    0.0125
  Px  C    5   -0.0700    0.0512    0.1845   -0.1592    0.1096   -0.0282   -0.1130   -0.2305
  Py  C    5    0.2431   -0.2736   -0.1202   -0.1998   -0.1326    0.1572   -0.0112   -0.1214
  Pz  C    5    0.0177   -0.0202   -0.0132   -0.0122   -0.0129    0.0123    0.0017   -0.0035
  S   C    6    0.0570   -0.0619    0.0455   -0.0781    0.0291   -0.0217   -0.0043   -0.0122
  Px  C    6    0.1563   -0.1538    0.1413   -0.1719    0.0767   -0.0529   -0.0057   -0.0134
  Py  C    6    0.0892   -0.1378   -0.1749   -0.1599   -0.2009    0.2644   -0.0606   -0.2499
  Pz  C    6    0.0028   -0.0054   -0.0122   -0.0064   -0.0127    0.0164   -0.0044   -0.0162
  S   C    7    0.0780   -0.0180    0.0637    0.0754   -0.0282    0.0969    0.0112    0.0191
  Px  C    7   -0.1515    0.1326   -0.1560    0.0149   -0.0509   -0.0467   -0.1642   -0.1674
  Py  C    7    0.2313    0.0115    0.0796    0.2296   -0.1062    0.2129   -0.0702   -0.0192
  Pz  C    7   -0.0054    0.0028   -0.0033    0.0002    0.0003   -0.0028   -0.0029   -0.0034
  S   C    8    0.0601   -0.0369   -0.0661    0.0811    0.0335   -0.0865   -0.0201   -0.0199
  Px  C    8    0.1000    0.0310   -0.0031    0.2214    0.1134   -0.1443    0.1371    0.1010
  Py  C    8   -0.2128    0.1725    0.2093   -0.1083   -0.0101    0.1402    0.1183    0.1342
  Pz  C    8    0.0118   -0.0019   -0.0070    0.0213    0.0115   -0.0190    0.0066    0.0048
  S   C    9   -0.0113   -0.0355   -0.0390   -0.0119   -0.0079   -0.0363   -0.0113   -0.0031
  Px  C    9    0.1321   -0.0089   -0.0542    0.2646    0.1645   -0.2238    0.1029    0.0766
  Py  C    9    0.0630   -0.0630    0.1134    0.0956    0.1696    0.3247   -0.2432    0.0153
  Pz  C    9    0.0122    0.0012    0.0056    0.0210    0.0169    0.0049   -0.0029    0.0060
  S   C   10   -0.0129   -0.0394    0.0390   -0.0175    0.0156    0.0311    0.0104    0.0067
  Px  C   10    0.1555    0.0294   -0.0911    0.2649   -0.2222   -0.1460    0.1290   -0.0596
  Py  C   10    0.0824    0.0528    0.0957    0.1088   -0.0388    0.3743   -0.2296   -0.0587
  Pz  C   10    0.0075   -0.0014    0.0043    0.0112   -0.0058    0.0141   -0.0057   -0.0052
  S   C   11   -0.0612   -0.0528    0.0766   -0.0621    0.0390    0.0601    0.0359   -0.0100
  Px  C   11    0.1022   -0.0194   -0.0295    0.2195   -0.1610   -0.0949    0.1697   -0.0704
  Py  C   11   -0.1949   -0.1923    0.1997   -0.0695    0.0220    0.1059    0.1649   -0.0859
  Pz  C   11    0.0144    0.0085   -0.0128    0.0147   -0.0120   -0.0117    0.0013   -0.0004
  S   H   12   -0.1250   -0.0911    0.1078   -0.0847    0.0607    0.0858    0.0384   -0.0275
  S   C   13   -0.0651   -0.0258   -0.0710   -0.0680   -0.0518   -0.0676   -0.0288    0.0118
  Px  C   13   -0.1167   -0.1444   -0.1404    0.0251    0.0561   -0.0482   -0.2256    0.1093
  Py  C   13    0.1730    0.0023    0.1016    0.1989    0.1625    0.1360   -0.0668    0.0088
  Pz  C   13   -0.0074   -0.0036   -0.0064   -0.0014   -0.0009   -0.0030   -0.0066    0.0039
  S   H   14    0.1607   -0.0275    0.0801    0.1034   -0.0432    0.1268    0.0098    0.0393
  S   H   15    0.0914   -0.1275   -0.0794   -0.1148   -0.0400    0.0126    0.0096    0.0056
  S   H   16   -0.1565    0.1344   -0.1062    0.0491   -0.0962    0.0896    0.0255    0.0030
  S   H   17   -0.1415    0.1511    0.1126    0.0554    0.0986   -0.0900   -0.0273   -0.0041
  S   H   18    0.0868   -0.0838    0.0932   -0.0958    0.0532   -0.0401   -0.0043   -0.0032
  S   H   19    0.1394   -0.0823   -0.1119    0.1043    0.0333   -0.1189   -0.0229   -0.0451
  S   H   20   -0.1158   -0.0344   -0.0866   -0.0836   -0.0732   -0.0881   -0.0284    0.0280
  S   C   21    0.0708    0.0993   -0.0721   -0.0470    0.1119    0.0463    0.0133    0.0136
  Px  C   21   -0.0775   -0.0620    0.1566   -0.1317   -0.1372   -0.0048   -0.1508    0.1832
  Py  C   21    0.2101    0.2923   -0.1084   -0.1833    0.1880    0.0998   -0.0282    0.1145
  Pz  C   21   -0.0076   -0.0096    0.0073    0.0021   -0.0093   -0.0031   -0.0034    0.0019
  S   C   22   -0.0438   -0.0647   -0.0314    0.0657    0.0281    0.0042    0.0063   -0.0145
  Px  C   22    0.1336    0.1766    0.1425   -0.1534   -0.1181   -0.0282   -0.0035    0.0072
  Py  C   22    0.0852    0.1505   -0.1686   -0.1481    0.2989    0.1657   -0.0910    0.2140
  Pz  C   22    0.0035    0.0045    0.0053   -0.0036   -0.0047   -0.0016    0.0018   -0.0023
  S   C   23   -0.0423   -0.0730    0.0404    0.0706   -0.0338   -0.0046   -0.0160    0.0127
  Px  C   23    0.1538    0.2384    0.0589   -0.2025   -0.2000   -0.1356    0.1084   -0.1888
  Py  C   23    0.0695    0.1239   -0.2057   -0.0828    0.2443    0.1033   -0.0365    0.1026
  Pz  C   23   -0.0061   -0.0095   -0.0015    0.0087    0.0052    0.0040   -0.0044    0.0068
  S   C   24    0.0765    0.0980    0.0630   -0.0437   -0.1082   -0.0460   -0.0123   -0.0124
  Px  C   24    0.1448    0.2327    0.0056   -0.2225   -0.0990   -0.0925    0.1355   -0.1941
  Py  C   24   -0.1891   -0.1830   -0.1788   -0.0282    0.2044    0.0480    0.1348   -0.1032
  Pz  C   24   -0.0117   -0.0155   -0.0062    0.0086    0.0126    0.0065   -0.0020    0.0057
  S   H   25    0.1231    0.1561   -0.0995   -0.0468    0.1351    0.0530    0.0346    0.0002
  S   H   26   -0.0802   -0.1060   -0.0967    0.0931    0.0817    0.0212    0.0046   -0.0031
  S   H   27   -0.0867   -0.1439    0.0879    0.1082   -0.0607   -0.0098   -0.0186    0.0091
  S   H   28    0.1326    0.1490    0.0950   -0.0402   -0.1337   -0.0518   -0.0347    0.0011
  S   C   29    0.0179    0.0446   -0.0039   -0.0620    0.0357    0.0186   -0.0025    0.0135
  Px  C   29   -0.1259   -0.1361    0.2337   -0.0813   -0.2397   -0.0383   -0.1613    0.1690
  Py  C   29   -0.0839   -0.1377    0.1271    0.0339    0.1096    0.1449    0.3858   -0.2229
  Pz  C   29   -0.0018   -0.0011    0.0036   -0.0031    0.0061    0.0062    0.0087   -0.0044
  S   C   30    0.0202    0.0509    0.0047   -0.0586   -0.0340   -0.0159    0.0146   -0.0164
  Px  C   30   -0.1528   -0.1378   -0.2158   -0.0500    0.0117   -0.1181   -0.2243    0.0996
  Py  C   30   -0.0720   -0.0386   -0.1234   -0.0793    0.2523    0.1033    0.3631   -0.2648
  Pz  C   30   -0.0025   -0.0038   -0.0040    0.0001    0.0090    0.0036    0.0125   -0.0098


   Root No.      81        82        83        84

                33 a      31 b      32 b      34 a   

                12.633    12.721    13.177    14.484
  
  S   C    1    0.0669   -0.0086    0.0094    0.0372
  Px  C    1    0.1604   -0.2334    0.1762    0.0931
  Py  C    1    0.0593    0.1412   -0.0996    0.0252
  Pz  C    1    0.0141    0.0012   -0.0002    0.0069
  S   C    2    0.0123    0.0227   -0.0185    0.0228
  Px  C    2    0.2163   -0.2370    0.1754    0.1361
  Py  C    2    0.1434   -0.0715    0.0369    0.1121
  Pz  C    2    0.0126   -0.0122    0.0086    0.0086
  S   C    3   -0.0004   -0.0017    0.0062    0.0294
  Px  C    3    0.2315   -0.1190    0.2633    0.2094
  Py  C    3    0.1440   -0.1316   -0.0218    0.1057
  Pz  C    3    0.0098   -0.0054    0.0054    0.0071
  S   C    4   -0.0041    0.0004   -0.0074    0.0277
  Px  C    4    0.2566    0.1613   -0.1030    0.1991
  Py  C    4    0.1437    0.0152   -0.2197    0.1385
  Pz  C    4   -0.0059   -0.0041    0.0038   -0.0028
  S   C    5    0.0012   -0.0259    0.0227    0.0195
  Px  C    5    0.2601    0.1835   -0.1088    0.1685
  Py  C    5    0.1275    0.1529   -0.1191    0.0542
  Pz  C    5    0.0042    0.0061   -0.0050    0.0000
  S   C    6    0.0688    0.0114   -0.0086    0.0381
  Px  C    6    0.1366    0.0106   -0.0086    0.0733
  Py  C    6    0.1483    0.2692   -0.1941    0.0685
  Pz  C    6    0.0070    0.0169   -0.0118    0.0034
  S   C    7   -0.0510   -0.0114   -0.0038    0.0156
  Px  C    7    0.1972   -0.1263    0.2641    0.2346
  Py  C    7    0.0038   -0.1266    0.1327    0.1605
  Pz  C    7    0.0035   -0.0016    0.0048    0.0057
  S   C    8   -0.0536    0.0132    0.0012    0.0134
  Px  C    8    0.1278    0.1602   -0.2313    0.2608
  Py  C    8    0.1876    0.0289   -0.1447    0.1272
  Pz  C    8    0.0022    0.0109   -0.0143    0.0160
  S   C    9   -0.0633   -0.0065   -0.0016   -0.0064
  Px  C    9    0.0529    0.1524   -0.2340    0.2687
  Py  C    9   -0.0464   -0.2636   -0.0896    0.1701
  Pz  C    9    0.0072   -0.0018   -0.0177    0.0223
  S   C   10   -0.0584    0.0144   -0.0105   -0.0099
  Px  C   10    0.0209    0.1368    0.2127    0.2423
  Py  C   10    0.0415   -0.2829    0.1557    0.1630
  Pz  C   10   -0.0018   -0.0077    0.0124    0.0123
  S   C   11   -0.0673    0.0108    0.0216    0.0042
  Px  C   11   -0.0544    0.1609    0.2234    0.2410
  Py  C   11   -0.1668    0.0687    0.1651    0.1337
  Pz  C   11    0.0040    0.0052    0.0051    0.0074
  S   H   12   -0.0556   -0.0161    0.0218    0.0019
  S   C   13   -0.0692    0.0044   -0.0187   -0.0004
  Px  C   13   -0.1943   -0.1053   -0.2464    0.2793
  Py  C   13    0.0216   -0.1047   -0.0977    0.1606
  Pz  C   13   -0.0047   -0.0024   -0.0073    0.0082
  S   H   14   -0.0390   -0.0357   -0.0034    0.0173
  S   H   15    0.0783   -0.0087    0.0083    0.0383
  S   H   16    0.0110    0.0261   -0.0298    0.0143
  S   H   17    0.0016   -0.0268    0.0317    0.0123
  S   H   18    0.0714   -0.0021    0.0025    0.0362
  S   H   19   -0.0520    0.0329    0.0140    0.0008
  S   H   20   -0.0482    0.0292   -0.0168   -0.0061
  S   C   21    0.0056    0.0236    0.0190   -0.0231
  Px  C   21   -0.2339    0.2295    0.1442    0.1869
  Py  C   21   -0.1123    0.1789    0.1330    0.0631
  Pz  C   21   -0.0021    0.0016    0.0006    0.0023
  S   C   22    0.0657   -0.0293   -0.0202   -0.0428
  Px  C   22   -0.1393    0.0304    0.0192    0.0857
  Py  C   22   -0.1135    0.2926    0.2105    0.0737
  Pz  C   22   -0.0029   -0.0019   -0.0010    0.0014
  S   C   23    0.0703    0.0105    0.0128   -0.0457
  Px  C   23   -0.2014   -0.2240   -0.1770    0.1197
  Py  C   23   -0.0498    0.1348    0.0934    0.0320
  Pz  C   23    0.0087    0.0079    0.0063   -0.0052
  S   C   24    0.0013   -0.0243   -0.0204   -0.0224
  Px  C   24   -0.2483   -0.2171   -0.1700    0.1650
  Py  C   24   -0.1535   -0.0723   -0.0433    0.1324
  Pz  C   24    0.0047    0.0073    0.0057   -0.0013
  S   H   25    0.0093    0.0215    0.0260   -0.0167
  S   H   26    0.0799   -0.0132   -0.0065   -0.0458
  S   H   27    0.0845    0.0016    0.0061   -0.0475
  S   H   28    0.0074   -0.0227   -0.0264   -0.0158
  S   C   29   -0.0157    0.0070   -0.0071   -0.0229
  Px  C   29   -0.2309    0.2121    0.1414    0.2160
  Py  C   29   -0.1144    0.0463    0.2229    0.1303
  Pz  C   29   -0.0034    0.0011    0.0052    0.0021
  S   C   30   -0.0116   -0.0025    0.0116   -0.0291
  Px  C   30   -0.2405   -0.0967   -0.2450    0.2513
  Py  C   30   -0.1505   -0.1215    0.0118    0.1126
  Pz  C   30   -0.0055   -0.0054   -0.0006    0.0054


              NET ATOMIC CHARGES AND DIPOLE CONTRIBUTIONS

  ATOM NO.   TYPE          CHARGE      No. of ELECS.   s-Pop       p-Pop       
    1          C          -0.023734        4.0237     1.09604     2.92770
    2          C          -0.029458        4.0295     1.10329     2.92617
    3          C           0.008428        3.9916     1.06937     2.92221
    4          C           0.010878        3.9891     1.06770     2.92143
    5          C          -0.031884        4.0319     1.10232     2.92956
    6          C          -0.027308        4.0273     1.09505     2.93225
    7          C          -0.030357        4.0304     1.08832     2.94204
    8          C          -0.033107        4.0331     1.09166     2.94145
    9          C           0.008472        3.9915     1.06847     2.92306
   10          C           0.008545        3.9915     1.07157     2.91988
   11          C          -0.044852        4.0449     1.11296     2.93190
   12          H           0.026552        0.9734     0.97345
   13          C          -0.035852        4.0359     1.09968     2.93617
   14          H           0.026325        0.9737     0.97368
   15          H           0.026080        0.9739     0.97392
   16          H           0.025558        0.9744     0.97444
   17          H           0.025273        0.9747     0.97473
   18          H           0.021620        0.9784     0.97838
   19          H           0.027115        0.9729     0.97289
   20          H           0.021244        0.9788     0.97876
   21          C          -0.023790        4.0238     1.08997     2.93382
   22          C          -0.031789        4.0318     1.09170     2.94009
   23          C          -0.030743        4.0307     1.09490     2.93585
   24          C          -0.021534        4.0215     1.09147     2.93007
   25          H           0.021616        0.9784     0.97838
   26          H           0.025835        0.9742     0.97417
   27          H           0.028549        0.9715     0.97145
   28          H           0.022492        0.9775     0.97751
   29          C           0.013266        3.9867     1.06579     2.92095
   30          C           0.016562        3.9834     1.06074     2.92270
 DIPOLE           X         Y         Z       TOTAL
 POINT-CHG.     0.058     0.035     0.023     0.072
 HYBRID         0.031     0.071     0.095     0.123
 SUM            0.089     0.106     0.118     0.182


          ATOMIC ORBITAL ELECTRON POPULATIONS

     Atom    s        px        py        pz   
    1  C   1.09604   0.97123   0.95856   0.99791
    2  C   1.10329   0.96955   0.94651   1.01011
    3  C   1.06937   0.97280   0.96445   0.98496
    4  C   1.06770   0.96463   0.97213   0.98466
    5  C   1.10232   0.97049   0.95628   1.00279
    6  C   1.09505   0.94321   0.98906   0.99999
    7  C   1.08832   0.97422   0.95175   1.01607
    8  C   1.09166   0.97755   0.95185   1.01205
    9  C   1.06847   0.97633   0.96715   0.97958
   10  C   1.07157   0.96318   0.97340   0.98331
   11  C   1.11296   0.96126   0.95349   1.01715
   12  H   0.97345
   13  C   1.09968   0.97320   0.94586   1.01711
   14  H   0.97368
   15  H   0.97392
   16  H   0.97444
   17  H   0.97473
   18  H   0.97838
   19  H   0.97289
   20  H   0.97876
   21  C   1.08997   0.97068   0.95941   1.00373
   22  C   1.09170   0.95427   0.98735   0.99847
   23  C   1.09490   0.98420   0.95237   0.99927
   24  C   1.09147   0.98267   0.94690   1.00051
   25  H   0.97838
   26  H   0.97417
   27  H   0.97145
   28  H   0.97751
   29  C   1.06579   0.96801   0.96928   0.98366
   30  C   1.06074   0.97769   0.96269   0.98232

 **********************
 *                    *
 * JOB ENDED NORMALLY *
 *                    *
 **********************



 TOTAL JOB TIME:             3.11 SECONDS

 == MOPAC DONE ==


          MOPAC Job: "./tetraceneTraj/tetracene_622.mop" ended normally on Feb 15, 2023, at 11:26.

rm: cannot remove ./tetraceneTraj/tetracene_622.cim: No such file or directory
rm: cannot remove ./tetraceneTraj/tetracene_622.end: No such file or directory
rm: cannot remove ./tetraceneTraj/tetracene_622.log: No such file or directory
rm: cannot remove ./tetraceneTraj/tetracene_622.temp: No such file or directory
rm: cannot remove ./tetraceneTraj/tetracene_622.ple: No such file or directory
rm: cannot remove ./tetraceneTraj/tetracene_622.sts: No such file or directory
