 *******************************************************************************
 ** Site#:    0         For non-commercial use only    Version 20.173L 64BITS **
 *******************************************************************************
 ** Cite this program as: MOPAC2016, Version: 20.173L, James J. P. Stewart,   **
 ** Stewart Computational Chemistry, web-site: HTTP://OpenMOPAC.net.          **
 *******************************************************************************
 **                                                                           **
 **                                MOPAC2016                                  **
 **                                                                           **
 *******************************************************************************

                              INDO CALCULATION RESULTS

 *******************************************************************************
 *  CALCULATION DONE:                                Wed Feb 15 11:36:06 2023  *
 *  INDO       - The INDO Hamiltonian to be used
 *
 *
 *
 *                 CHARGE ON SYSTEM = 0
 *
 *
 *
 *  C.I.=(N,M) - 3 DOUBLY FILLED LEVELS USED IN A C.I. INVOLVING 6 M.O.'S
 *  T=         - A TIME OF 172800.0 SECONDS REQUESTED
 *  DUMP=N     - RESTART FILE WRITTEN EVERY 7200.0 SECONDS REQUESTED
 *  RELSCF     - DEFAULT SCF CRITERION MULTIPLIED BY 0.0000
 *              (DEFAULT SCF CRITERION = 0.00010)
 *  ALLVEC     - PRINT ALL EIGENVECTORS
 **********
 *  WARNING: Specified print options may not behave as expected with INDO
 **********
 *******************************************************************************
INDO C.I.=(6,3) AllVEC CHARGE=0 RELSCF=0.000001


   ATOM   CHEMICAL          X               Y               Z
  NUMBER   SYMBOL      (ANGSTROMS)     (ANGSTROMS)     (ANGSTROMS)
 
     1       C         18.46475373  *  19.52083416  *  22.31795589  *
     2       C         19.84792146  *  19.45708277  *  22.42276038  *
     3       C         20.65387821  *  20.63503072  *  22.40501909  *
     4       C         19.97923874  *  21.94935932  *  22.44029259  *
     5       C         18.52075400  *  21.97486115  *  22.39154501  *
     6       C         17.79639437  *  20.81798339  *  22.28740972  *
     7       C         22.07221316  *  20.60223464  *  22.58156580  *
     8       C         20.75808211  *  23.12449218  *  22.58551107  *
     9       C         22.16127174  *  23.13878722  *  22.57379599  *
    10       C         22.86350641  *  21.82143375  *  22.54171429  *
    11       C         24.33873161  *  21.81530735  *  22.58728002  *
    12       H         24.88914188  *  20.87477684  *  22.59728571  *
    13       C         22.91499015  *  24.33145784  *  22.56930806  *
    14       H         22.54928559  *  19.65781629  *  22.59749289  *
    15       H         17.87543390  *  18.58116895  *  22.21320408  *
    16       H         20.31537760  *  18.47347209  *  22.40195057  *
    17       H         18.04019168  *  22.96155070  *  22.38163928  *
    18       H         16.68512987  *  20.83608043  *  22.23622919  *
    19       H         20.18331591  *  24.09098628  *  22.71348482  *
    20       H         22.41569846  *  25.30263960  *  22.51482603  *
    21       C         26.48968907  *  23.08203033  *  22.47312882  *
    22       C         27.19710625  *  24.30594272  *  22.46131535  *
    23       C         26.48796199  *  25.56225240  *  22.55539682  *
    24       C         25.09118182  *  25.52005063  *  22.63563157  *
    25       H         27.06938099  *  22.12613368  *  22.41890448  *
    26       H         28.31703838  *  24.20689072  *  22.48769001  *
    27       H         26.98495755  *  26.48052174  *  22.46295863  *
    28       H         24.58074637  *  26.44579360  *  22.66769012  *
    29       C         25.04186574  *  23.01905077  *  22.57741671  *
    30       C         24.32838020  *  24.31863117  *  22.61870545  *
 


          CARTESIAN COORDINATES 

    NO.       ATOM           X           Y           Z

     1         C         18.4648     19.5208     22.3180
     2         C         19.8479     19.4571     22.4228
     3         C         20.6539     20.6350     22.4050
     4         C         19.9792     21.9494     22.4403
     5         C         18.5208     21.9749     22.3915
     6         C         17.7964     20.8180     22.2874
     7         C         22.0722     20.6022     22.5816
     8         C         20.7581     23.1245     22.5855
     9         C         22.1613     23.1388     22.5738
    10         C         22.8635     21.8214     22.5417
    11         C         24.3387     21.8153     22.5873
    12         H         24.8891     20.8748     22.5973
    13         C         22.9150     24.3315     22.5693
    14         H         22.5493     19.6578     22.5975
    15         H         17.8754     18.5812     22.2132
    16         H         20.3154     18.4735     22.4020
    17         H         18.0402     22.9616     22.3816
    18         H         16.6851     20.8361     22.2362
    19         H         20.1833     24.0910     22.7135
    20         H         22.4157     25.3026     22.5148
    21         C         26.4897     23.0820     22.4731
    22         C         27.1971     24.3059     22.4613
    23         C         26.4880     25.5623     22.5554
    24         C         25.0912     25.5201     22.6356
    25         H         27.0694     22.1261     22.4189
    26         H         28.3170     24.2069     22.4877
    27         H         26.9850     26.4805     22.4630
    28         H         24.5807     26.4458     22.6677
    29         C         25.0419     23.0191     22.5774
    30         C         24.3284     24.3186     22.6187

           Empirical Formula: C18 H12  =    30 atoms



      MOLECULAR POINT GROUP   :   C2  


      RHF CALCULATION, NO. OF DOUBLY OCCUPIED LEVELS = 42

 WARNING: INDO only performs single-point calculations
  SCF CRITERION =    0.1000E-09

 Summary of symmetry occupancy in each shell:

 SHELL     
    1   42
    v   42
 TOTAL  84




    ROOT NO.    1           2           3           4           5           6

           -44.44824   -43.03334   -40.29565   -36.86748   -35.68065   -34.27009
  
  
  S  C   1   0.13392    -0.22170    -0.25284    -0.24304     0.04439     0.12446
 PX  C   1   0.03754    -0.05591    -0.04624    -0.01288     0.04761     0.09006
 PY  C   1   0.04768    -0.07586    -0.07772    -0.06121    -0.02814    -0.05042
 PZ  C   1   0.00286    -0.00420    -0.00336    -0.00092     0.00191     0.00354
  
  S  C   2   0.16826    -0.24656    -0.20922    -0.10774     0.17138     0.29979
 PX  C   2  -0.00547     0.02768     0.07062     0.10939     0.04861     0.03981
 PY  C   2   0.06604    -0.08925    -0.05684    -0.00115     0.01497     0.01203
 PZ  C   2  -0.00253     0.00532     0.00822     0.00945    -0.00120    -0.00490
  
  S  C   3   0.27432    -0.29601    -0.05343     0.17280     0.18271     0.21464
 PX  C   3  -0.00713     0.06152     0.13635     0.13454     0.07432     0.04805
 PY  C   3   0.05006    -0.02351     0.06446     0.09518    -0.08717    -0.14281
 PZ  C   3   0.01032    -0.00794     0.00675     0.01676     0.00898     0.00837
  
  S  C   4   0.27629    -0.29207    -0.04069     0.17180    -0.15474    -0.21957
 PX  C   4   0.04034     0.01361     0.13170     0.15734     0.04406     0.07948
 PY  C   4  -0.03185     0.06496     0.08219     0.05359    -0.10801    -0.12346
 PZ  C   4   0.00411    -0.00054     0.00946     0.01351    -0.00404    -0.00382
  
  S  C   5   0.16558    -0.24117    -0.20258    -0.11497    -0.18324    -0.29752
 PX  C   5   0.04919    -0.05472    -0.00436     0.05903    -0.02763    -0.03231
 PY  C   5  -0.04274     0.07527     0.09318     0.09154    -0.01651    -0.02235
 PZ  C   5  -0.00016     0.00175     0.00514     0.00799    -0.00024     0.00070
  
  S  C   6   0.13421    -0.22179    -0.25235    -0.24637    -0.08451    -0.13028
 PX  C   6   0.06024    -0.09352    -0.08912    -0.05677    -0.01174    -0.01182
 PY  C   6   0.00301    -0.00132     0.00831     0.02301    -0.04961    -0.10029
 PZ  C   6   0.00511    -0.00800    -0.00785    -0.00557    -0.00296    -0.00484
  
  S  C   7   0.22263    -0.13419     0.15202     0.23223     0.29825     0.19580
 PX  C   7  -0.03678     0.06958     0.03134    -0.07732     0.00904    -0.06939
 PY  C   7   0.06972    -0.01597     0.08525     0.06004    -0.00246    -0.04870
 PZ  C   7  -0.00829     0.00729    -0.00346    -0.01191    -0.01071    -0.01068
  
  S  C   8   0.24013    -0.12998     0.18454     0.22677    -0.27839    -0.20103
 PX  C   8   0.04728     0.02709     0.10114     0.00536    -0.01180     0.07800
 PY  C   8  -0.06692     0.06790    -0.01866    -0.10150    -0.02438     0.03965
 PZ  C   8  -0.00631     0.00588    -0.00183    -0.00806     0.00374     0.00711
  
  S  C   9   0.31989     0.01024     0.32742    -0.00105    -0.20916    -0.00631
 PX  C   9   0.02239     0.08532     0.01247    -0.18826     0.06704     0.06878
 PY  C   9  -0.04000     0.04691    -0.03863    -0.10508    -0.13028     0.03563
 PZ  C   9  -0.00214     0.00125    -0.00146    -0.00268    -0.00023     0.00086
  
  S  C  10   0.30007     0.00440     0.29835     0.00571     0.21545     0.00756
 PX  C  10  -0.02877     0.08191    -0.03322    -0.18672     0.06798    -0.04941
 PY  C  10   0.05165     0.04692     0.04977    -0.10104    -0.11709    -0.03561
 PZ  C  10   0.00391     0.00159     0.00494    -0.00338     0.00284    -0.00088
  
  S  C  11   0.21991     0.13694     0.14043    -0.23045     0.32049    -0.17430
 PX  C  11  -0.03851     0.02009    -0.08618     0.00441     0.00455    -0.07792
 PY  C  11   0.07134     0.07021     0.01639    -0.10174     0.00514    -0.04137
 PZ  C  11  -0.00226    -0.00144    -0.00100     0.00164    -0.00384     0.00238
  
  S  H  12   0.06628     0.04088     0.03835    -0.06425     0.15810    -0.08762
  
  S  C  13   0.24362     0.14654     0.16555    -0.22673    -0.30261     0.18760
 PX  C  13   0.03400     0.07258    -0.04593    -0.08021     0.01863     0.07567
 PY  C  13  -0.07444    -0.01748    -0.09243     0.05993    -0.00757     0.04459
 PZ  C  13   0.00095     0.00122     0.00049    -0.00272    -0.00134     0.00233
  
  S  H  14   0.07080    -0.04334     0.04310     0.06799     0.15509     0.10547
  
  S  H  15   0.03340    -0.05815    -0.07441    -0.08556     0.02013     0.05648
  
  S  H  16   0.05047    -0.07255    -0.05904    -0.02661     0.08935     0.15083
  
  S  H  17   0.05015    -0.06996    -0.05302    -0.02539    -0.09285    -0.14913
  
  S  H  18   0.03350    -0.05823    -0.07450    -0.08763    -0.03436    -0.05668
  
  S  H  19   0.07232    -0.03858     0.05160     0.05846    -0.14280    -0.09914
  
  S  H  20   0.07698     0.04630     0.04792    -0.06142    -0.15870     0.09492
  
  S  C  21   0.15746     0.22538    -0.20440     0.10035     0.19747    -0.27679
 PX  C  21  -0.05177    -0.05880     0.01252     0.05915    -0.04529     0.03218
 PY  C  21   0.03776     0.06599    -0.09051     0.09553    -0.02988     0.01698
 PZ  C  21   0.00432     0.00596    -0.00449     0.00018     0.00341    -0.00351
  
  S  C  22   0.12574     0.20455    -0.25365     0.24993     0.06339    -0.12808
 PX  C  22  -0.05736    -0.08786     0.09212    -0.06172    -0.00660     0.01029
 PY  C  22  -0.00323    -0.00165    -0.00878     0.03011    -0.05708     0.08644
 PZ  C  22   0.00423     0.00685    -0.00825     0.00745     0.00008    -0.00062
  
  S  C  23   0.13045     0.21266    -0.26527     0.26950    -0.07364     0.09200
 PX  C  23  -0.03493    -0.05102     0.04562    -0.01581     0.04938    -0.07699
 PY  C  23  -0.04595    -0.07169     0.07913    -0.06036    -0.02440     0.04647
 PZ  C  23  -0.00067    -0.00128     0.00225    -0.00366    -0.00178     0.00341
  
  S  C  24   0.17256     0.24710    -0.22529     0.13052    -0.19448     0.26015
 PX  C  24   0.00428     0.02619    -0.07598     0.11814     0.04455    -0.05078
 PY  C  24  -0.06352    -0.08285     0.05298     0.00707     0.00799    -0.00400
 PZ  C  24  -0.00452    -0.00682     0.00722    -0.00590     0.00200    -0.00222
  
  S  H  25   0.04534     0.06321    -0.05386     0.02071     0.09741    -0.13210
  
  S  H  26   0.03091     0.05274    -0.07302     0.08535     0.02884    -0.05905
  
  S  H  27   0.03612     0.06167    -0.08564     0.10333    -0.03554     0.04818
  
  S  H  28   0.05643     0.07870    -0.06768     0.03703    -0.10725     0.14261
  
  S  C  29   0.27173     0.28771    -0.05736    -0.18460     0.21605    -0.20760
 PX  C  29  -0.04384     0.00284    -0.12041     0.14826     0.03679    -0.08399
 PY  C  29   0.03206     0.06195    -0.08270     0.06348    -0.11848     0.10243
 PZ  C  29  -0.00169    -0.00277     0.00328    -0.00224    -0.00483     0.00681
  
  S  C  30   0.28197     0.30016    -0.06442    -0.16845    -0.16656     0.19670
 PX  C  30   0.00066     0.05285    -0.13984     0.13437     0.08142    -0.06556
 PY  C  30  -0.04741    -0.02082    -0.06686     0.10469    -0.11129     0.12885
 PZ  C  30  -0.00555    -0.00573     0.00099     0.00311     0.00067     0.00012




    ROOT NO.    7           8           9          10          11          12

           -31.76658   -31.33907   -28.91261   -28.22454   -26.88878   -26.09478
  
  
  S  C   1  -0.21439     0.22674    -0.16542     0.27334    -0.02488    -0.19175
 PX  C   1  -0.09008    -0.09369    -0.11551    -0.14748     0.01987    -0.07431
 PY  C   1   0.06617     0.04015     0.09851    -0.01313    -0.06845     0.12615
 PZ  C   1  -0.00288    -0.00601    -0.00427    -0.01111     0.00016    -0.00127
  
  S  C   2  -0.26379    -0.08289    -0.17939    -0.11360     0.10715    -0.05158
 PX  C   2   0.06149    -0.12936     0.12177    -0.12904     0.07234     0.18933
 PY  C   2   0.03439    -0.06932     0.05769    -0.09909    -0.09415     0.11676
 PZ  C   2   0.01027    -0.00604     0.01181    -0.00390     0.00038     0.01242
  
  S  C   3  -0.01325    -0.24524     0.08964    -0.13697    -0.08611     0.19768
 PX  C   3   0.06216     0.04440     0.14467     0.14210     0.08786     0.06359
 PY  C   3   0.08938    -0.00048    -0.01434     0.09482    -0.18866    -0.08215
 PZ  C   3   0.00406    -0.00918     0.01176     0.00400     0.00021     0.01245
  
  S  C   4   0.11619    -0.24036    -0.13049    -0.10053    -0.10565    -0.17242
 PX  C   4  -0.09679    -0.00903    -0.04066     0.17274    -0.10400     0.06066
 PY  C   4  -0.00749     0.02220    -0.10401     0.09462     0.16558    -0.14107
 PZ  C   4  -0.00431    -0.00455    -0.01064     0.01248     0.00533    -0.00766
  
  S  C   5   0.27087     0.00573     0.15233    -0.15809     0.11912     0.01051
 PX  C   5  -0.00633    -0.14907    -0.14738    -0.11342    -0.05130    -0.18525
 PY  C   5  -0.00230    -0.08079    -0.07699    -0.03153     0.10278    -0.12085
 PZ  C   5  -0.00407    -0.01094    -0.01349    -0.00379     0.00109    -0.01544
  
  S  C   6   0.11414     0.28790     0.22670     0.21510    -0.00320     0.20263
 PX  C   6   0.00390    -0.02408    -0.03408    -0.08957    -0.04794    -0.05122
 PY  C   6   0.13697    -0.05545     0.11857    -0.15377     0.06993     0.10018
 PZ  C   6   0.00518     0.00078     0.00398    -0.00646    -0.00057     0.00221
  
  S  C   7   0.17809     0.04924     0.25828     0.10027     0.17723     0.00374
 PX  C   7   0.07985     0.16284    -0.03699     0.02957     0.09335    -0.20840
 PY  C   7   0.04225     0.09024    -0.02207     0.09890    -0.16046    -0.09445
 PZ  C   7  -0.00256     0.00679    -0.01118    -0.00232    -0.00047    -0.01154
  
  S  C   8  -0.16784    -0.04046    -0.21874     0.15221     0.16735    -0.02571
 PX  C   8  -0.14396     0.13703     0.06067     0.07626    -0.05611     0.21157
 PY  C   8  -0.08091     0.06126     0.02892    -0.04829     0.18001     0.09329
 PZ  C   8  -0.00518     0.00699     0.00416    -0.00119     0.01069     0.00924
  
  S  C   9  -0.25864     0.20268     0.00086    -0.00357    -0.06566     0.17801
 PX  C   9   0.07455     0.03408     0.09020    -0.19267    -0.12627    -0.06414
 PY  C   9  -0.12428    -0.05580     0.05061    -0.11667     0.21652     0.10337
 PZ  C   9  -0.00072     0.00073    -0.00011    -0.00058     0.00601     0.00028
  
  S  C  10   0.17371     0.29988     0.01238     0.01244    -0.09518    -0.20121
 PX  C  10   0.06805     0.00740    -0.11652    -0.17063     0.10310    -0.07904
 PY  C  10  -0.13133     0.00395    -0.07324    -0.09073    -0.20492     0.11205
 PZ  C  10   0.00354     0.00827    -0.00211    -0.00153    -0.00040    -0.00778
  
  S  C  11   0.16372     0.06441    -0.25157    -0.10691     0.18366    -0.01731
 PX  C  11  -0.08347    -0.16412    -0.05442     0.08014     0.09614     0.20332
 PY  C  11  -0.04210    -0.07969    -0.04120    -0.03444    -0.16230     0.11434
 PZ  C  11  -0.00048    -0.00030     0.00098     0.00047    -0.00195    -0.00049
  
  S  H  12   0.07566     0.02351    -0.11543    -0.01257     0.21471    -0.00714
  
  S  C  13  -0.14875    -0.03443     0.21510    -0.15978     0.16601    -0.00846
 PX  C  13   0.15207    -0.12199     0.05088     0.01495    -0.12812    -0.18823
 PY  C  13   0.08185    -0.08463     0.03270     0.09046     0.15284    -0.10557
 PZ  C  13   0.00210    -0.00177     0.00097    -0.00005    -0.00114    -0.00375
  
  S  H  14   0.08667     0.02069     0.12815     0.00703     0.21186    -0.00552
  
  S  H  15  -0.10786     0.11851    -0.09382     0.18672     0.01533    -0.13695
  
  S  H  16  -0.13013    -0.03651    -0.08622    -0.03747     0.12941    -0.04139
  
  S  H  17   0.13011    -0.00196     0.06901    -0.06571     0.13547    -0.01282
  
  S  H  18   0.05422     0.15177     0.13191     0.15624     0.02709     0.13373
  
  S  H  19  -0.07518    -0.02871    -0.10307     0.02463     0.20230    -0.02976
  
  S  H  20  -0.06859    -0.02780     0.10428    -0.03499     0.21063    -0.00959
  
  S  C  21  -0.26923    -0.10498     0.19223     0.11677     0.12501    -0.02166
 PX  C  21  -0.05742     0.12281     0.12941    -0.13525     0.03183    -0.19858
 PY  C  21  -0.03886     0.06421     0.08703    -0.03992    -0.11873    -0.10995
 PZ  C  21   0.00082    -0.00619    -0.00512     0.00809    -0.00307     0.00956
  
  S  C  22  -0.22857     0.20981     0.20288    -0.24274    -0.03330    -0.21045
 PX  C  22  -0.00333     0.01498     0.02370    -0.08117     0.04562    -0.06756
 PY  C  22   0.10578     0.11079    -0.15672    -0.11874    -0.06108     0.10909
 PZ  C  22  -0.00114     0.00513    -0.00116    -0.00298    -0.00442     0.00118
  
  S  C  23   0.09070     0.30419    -0.22175    -0.22874    -0.01437     0.17105
 PX  C  23  -0.11398     0.05427     0.09065    -0.16330    -0.03703    -0.07010
 PY  C  23   0.07681     0.00030    -0.10812    -0.00739     0.08040     0.10472
 PZ  C  23   0.00641    -0.00813    -0.00352     0.01482     0.00346     0.00245
  
  S  C  24   0.27021     0.00500    -0.16010     0.15654     0.11513     0.02261
 PX  C  24  -0.01475     0.15623    -0.13842    -0.09672    -0.06384     0.17623
 PY  C  24   0.01260     0.09649    -0.09654    -0.08934     0.10920     0.09468
 PZ  C  24  -0.00168    -0.00492     0.00366     0.00337     0.00285    -0.00461
  
  S  H  25  -0.12564    -0.04511     0.08667     0.03651     0.13855    -0.01691
  
  S  H  26  -0.11627     0.10372     0.12039    -0.15928     0.01370    -0.15174
  
  S  H  27   0.05317     0.16926    -0.14435    -0.16768     0.02387     0.12606
  
  S  H  28   0.14381     0.00657    -0.08848     0.06103     0.14249     0.01018
  
  S  C  29  -0.02184    -0.23646    -0.11221     0.11330    -0.07476     0.19289
 PX  C  29  -0.10774    -0.04484     0.06822     0.15612     0.12643     0.06410
 PY  C  29  -0.00560    -0.04927     0.13877     0.08316    -0.18939    -0.09358
 PZ  C  29   0.00646     0.00245    -0.00302    -0.00425    -0.00631    -0.00423
  
  S  C  30   0.12568    -0.23813     0.11913     0.10973    -0.11845    -0.15754
 PX  C  30   0.04664    -0.02240    -0.10639     0.17598    -0.07696     0.07675
 PY  C  30   0.08684     0.00972     0.02457     0.09834     0.18405    -0.10475
 PZ  C  30   0.00236     0.00257    -0.00356     0.00255     0.00404    -0.00062




    ROOT NO.   13          14          15          16          17          18

           -25.36024   -23.91559   -22.78994   -21.64532   -20.65285   -19.39443
  
  
  S  C   1  -0.02155     0.14199    -0.01572    -0.16719    -0.04850    -0.02218
 PX  C   1   0.03839    -0.23701    -0.00436    -0.00017     0.19623     0.17966
 PY  C   1  -0.13886    -0.00779    -0.18694     0.11856    -0.13347     0.19278
 PZ  C   1   0.00030    -0.01829    -0.00383     0.00359     0.01402     0.02417
  
  S  C   2   0.16548    -0.17272     0.11407     0.11454     0.10862     0.03890
 PX  C   2   0.08298     0.03040     0.07296     0.18615    -0.11733    -0.12811
 PY  C   2  -0.17570    -0.00949    -0.20012     0.07708    -0.14841     0.07359
 PZ  C   2  -0.00030     0.00742     0.00130     0.00667    -0.00890    -0.00241
  
  S  C   3  -0.11426     0.09062     0.00432     0.10542    -0.04511    -0.15219
 PX  C   3   0.13657     0.16294     0.14715    -0.09472    -0.00407    -0.04121
 PY  C   3  -0.20447     0.08400    -0.01780    -0.13361     0.13744    -0.08894
 PZ  C   3   0.00322     0.01794     0.01007    -0.00007    -0.00728    -0.00171
  
  S  C   4  -0.11689     0.10689    -0.01746    -0.09469    -0.05009    -0.14198
 PX  C   4  -0.08930     0.15406     0.09059     0.16372     0.10467    -0.05381
 PY  C   4   0.22628     0.09077     0.12257     0.02001    -0.08894     0.04492
 PZ  C   4   0.00997     0.01873     0.01028     0.01431    -0.01092     0.00941
  
  S  C   5   0.17421    -0.17500     0.10793    -0.11905     0.11646    -0.00054
 PX  C   5  -0.09500     0.02359    -0.14958    -0.16344    -0.18585    -0.02732
 PY  C   5   0.16554     0.03765     0.15546    -0.09169    -0.01391    -0.17942
 PZ  C   5   0.00067     0.00774    -0.00378    -0.00832    -0.01658    -0.00204
  
  S  C   6  -0.01552     0.12318     0.01604     0.17019    -0.04430     0.01837
 PX  C   6  -0.09025    -0.13883    -0.16856    -0.12051     0.00752     0.22774
 PY  C   6   0.11619    -0.20088     0.11931     0.05030     0.24199     0.04448
 PZ  C   6  -0.00183    -0.01256    -0.00690    -0.00311     0.00685     0.02137
  
  S  C   7   0.12407     0.10644    -0.08135    -0.20566    -0.06643     0.12822
 PX  C   7   0.02178    -0.14028    -0.18721    -0.08990     0.01010     0.17208
 PY  C   7  -0.12485    -0.09407     0.04863    -0.03152     0.22877    -0.01571
 PZ  C   7  -0.00101    -0.01203    -0.01050     0.00116    -0.00391     0.01850
  
  S  C   8   0.11938     0.10071    -0.06298     0.20900    -0.07823     0.16736
 PX  C   8  -0.07920    -0.17309    -0.04702     0.05717     0.18321     0.07948
 PY  C   8   0.08460    -0.06972    -0.17250     0.04770    -0.10832     0.11608
 PZ  C   8   0.00638    -0.00728    -0.01453     0.01232    -0.01209     0.02741
  
  S  C   9   0.01286    -0.22204     0.02304    -0.00526    -0.00969    -0.00885
 PX  C   9   0.00691    -0.02692     0.11053    -0.17661    -0.15547    -0.17648
 PY  C   9   0.01289     0.08751    -0.21544    -0.08211    -0.09174    -0.09883
 PZ  C   9   0.00372    -0.00112    -0.00747     0.00761    -0.00625     0.01994
  
  S  C  10  -0.00288    -0.23049     0.01368    -0.01426     0.00618     0.00328
 PX  C  10   0.01145     0.03814    -0.11394     0.17976    -0.17451    -0.13998
 PY  C  10   0.00700    -0.07523     0.22003     0.08890    -0.09413    -0.08349
 PZ  C  10   0.00230    -0.00824    -0.00530     0.00425    -0.00364     0.01333
  
  S  C  11  -0.12933     0.08093    -0.07265     0.22897     0.06850    -0.14385
 PX  C  11  -0.08817     0.14017     0.05782    -0.05631     0.19067     0.06303
 PY  C  11   0.07725     0.07632     0.17334    -0.06008    -0.11320     0.13230
 PZ  C  11   0.00266     0.00207    -0.00218     0.00425     0.00217     0.00730
  
  S  H  12  -0.13828     0.04441    -0.11522     0.12758     0.16517    -0.13309
  
  S  C  13  -0.12051     0.11519    -0.07248    -0.19429     0.08345    -0.15112
 PX  C  13   0.00283     0.13936     0.18085     0.06253     0.01683     0.16870
 PY  C  13  -0.12342     0.08770    -0.04587     0.03358     0.22610     0.01345
 PZ  C  13   0.00121     0.00180     0.00414     0.00781    -0.00598     0.01743
  
  S  H  14   0.14376     0.06825    -0.12523    -0.10972    -0.16900     0.13388
  
  S  H  15   0.04831     0.15852     0.09792    -0.15589    -0.02080    -0.20672
  
  S  H  16   0.20965    -0.07407     0.19709     0.06149     0.11202    -0.06518
  
  S  H  17   0.21173    -0.07319     0.18821    -0.06347     0.10396    -0.10322
  
  S  H  18   0.04823     0.15066     0.12106     0.17170    -0.02677    -0.16226
  
  S  H  19   0.13383     0.06696    -0.11126     0.10591    -0.16225     0.12521
  
  S  H  20  -0.13407     0.06685    -0.11636    -0.09256     0.17063    -0.12383
  
  S  C  21  -0.15958    -0.17275     0.10850    -0.15173    -0.11127    -0.01867
 PX  C  21  -0.11499    -0.02251     0.13844     0.14961    -0.18824    -0.01865
 PY  C  21   0.14890    -0.02623    -0.15078     0.12477    -0.02690    -0.16285
 PZ  C  21   0.00930     0.00112    -0.01272    -0.00297     0.01406     0.00031
  
  S  C  22  -0.01059     0.12368     0.00312     0.18258     0.04836     0.00134
 PX  C  22  -0.10819     0.10962     0.16596     0.09830    -0.01326     0.24757
 PY  C  22   0.10573     0.19574    -0.10645    -0.03308     0.25029     0.04993
 PZ  C  22   0.00783     0.00258    -0.01078     0.00348     0.00904    -0.00722
  
  S  C  23   0.02791     0.14101    -0.00524    -0.15294     0.06056     0.00988
 PX  C  23   0.02300     0.23820    -0.00054    -0.00007     0.22253     0.19684
 PY  C  23  -0.12422     0.01380     0.19300    -0.15136    -0.12241     0.20637
 PZ  C  23  -0.00330    -0.02069     0.00214     0.00634    -0.02127    -0.01377
  
  S  C  24  -0.13866    -0.19418     0.09499     0.10995    -0.12713    -0.03886
 PX  C  24   0.10618    -0.02575    -0.07669    -0.15651    -0.11000    -0.17359
 PY  C  24  -0.16795    -0.01052     0.20240    -0.09980    -0.16806     0.05447
 PZ  C  24  -0.00539    -0.00258     0.00719     0.01032    -0.00461     0.01127
  
  S  H  25  -0.20017    -0.08023     0.18525    -0.09126    -0.10589     0.08031
  
  S  H  26  -0.07744     0.12146     0.11716     0.16442     0.00074     0.18146
  
  S  H  27  -0.04551     0.15711     0.10914    -0.17525     0.03360     0.21095
  
  S  H  28  -0.20117    -0.09841     0.19021     0.04460    -0.12937     0.07190
  
  S  C  29   0.11266     0.10039    -0.00196    -0.09651     0.04016     0.14351
 PX  C  29  -0.08061    -0.14536    -0.07120    -0.17370     0.11981    -0.06235
 PY  C  29   0.22426    -0.07189    -0.12687    -0.03162    -0.07805     0.03804
 PZ  C  29   0.00682     0.00713    -0.00194     0.01668    -0.00188     0.00954
  
  S  C  30   0.10481     0.10000    -0.00654     0.09028     0.05365     0.15854
 PX  C  30   0.15382    -0.15870    -0.15111     0.10535    -0.02093    -0.01575
 PY  C  30  -0.19262    -0.09793     0.00352     0.13124     0.14003    -0.06856
 PZ  C  30  -0.00377    -0.00454     0.00215     0.01289    -0.00250     0.00998




    ROOT NO.   19          20          21          22          23          24

           -18.43911   -17.24432   -16.84912   -16.64663   -16.07958   -15.13583
  
  
  S  C   1   0.16088     0.02269    -0.03585     0.11472    -0.07085     0.03174
 PX  C   1  -0.06273    -0.18891     0.01643    -0.03581    -0.18085     0.19770
 PY  C   1  -0.13220     0.16812    -0.03137    -0.10505    -0.14889     0.10411
 PZ  C   1  -0.01023    -0.01463     0.00312    -0.01260    -0.04279     0.02658
  
  S  C   2  -0.16080     0.00213    -0.00844    -0.06762     0.01052     0.07016
 PX  C   2  -0.11637     0.19564    -0.00906    -0.04789     0.21046    -0.16460
 PY  C   2   0.01992     0.11801    -0.15048     0.25755    -0.02586     0.24882
 PZ  C   2  -0.00129     0.00840     0.00393    -0.00796    -0.01564    -0.00237
  
  S  C   3   0.03117    -0.03637    -0.10691     0.20688     0.03892    -0.00426
 PX  C   3   0.16625     0.01265    -0.01550     0.01059    -0.22039    -0.15419
 PY  C   3   0.06501    -0.27591     0.09925    -0.06007     0.03947    -0.07911
 PZ  C   3   0.01244     0.00569    -0.00023     0.00303    -0.04248     0.00121
  
  S  C   4  -0.05268    -0.03461     0.12302    -0.18015     0.12842    -0.01383
 PX  C   4  -0.13264    -0.21954     0.02548     0.03409    -0.12166     0.14268
 PY  C   4  -0.10511     0.16781     0.01933    -0.12944    -0.16635     0.08637
 PZ  C   4  -0.02104     0.00772    -0.00920     0.00315    -0.05217     0.01949
  
  S  C   5   0.16344     0.02146    -0.00279     0.06770    -0.00614    -0.05776
 PX  C   5   0.02920     0.20471     0.03621    -0.15830     0.18050    -0.10922
 PY  C   5   0.07670     0.11134    -0.13776     0.22666     0.09980     0.29067
 PZ  C   5  -0.00162     0.01941    -0.01026     0.00377    -0.01410     0.01503
  
  S  C   6  -0.15542    -0.00234     0.03481    -0.12555    -0.02335    -0.03050
 PX  C   6   0.18046     0.04962     0.01492     0.01858    -0.24403    -0.18165
 PY  C   6   0.00396    -0.25455     0.07945    -0.02094    -0.05152    -0.12526
 PZ  C   6   0.00824    -0.00479     0.00120    -0.00020    -0.04205    -0.00651
  
  S  C   7   0.11092    -0.03940     0.02096    -0.05563    -0.07388     0.01187
 PX  C   7  -0.13885    -0.04115     0.07988    -0.13909     0.18340     0.15334
 PY  C   7  -0.11877    -0.08745    -0.22827     0.13431     0.01616    -0.03916
 PZ  C   7  -0.00869     0.00555     0.01986    -0.01888     0.00299     0.02853
  
  S  C   8  -0.08788    -0.04279    -0.00144     0.04025    -0.09463    -0.01380
 PX  C   8   0.19172    -0.03099     0.12548     0.03559     0.15190    -0.03391
 PY  C   8   0.06054    -0.02881    -0.19111     0.22100     0.03704    -0.15809
 PZ  C   8   0.00179     0.00025    -0.03144     0.04406    -0.02148    -0.01801
  
  S  C   9   0.14263     0.15039     0.14700    -0.01649     0.08950     0.05471
 PX  C   9  -0.05847     0.11744    -0.03709    -0.06094    -0.06317     0.06144
 PY  C   9   0.06732    -0.22605     0.09888     0.02022     0.11668     0.03885
 PZ  C   9   0.00332    -0.00279    -0.00086     0.02466    -0.00599     0.00220
  
  S  C  10  -0.16671     0.09047    -0.20880     0.02716     0.05748    -0.06473
 PX  C  10  -0.06794    -0.12835    -0.01594     0.06282     0.05918    -0.11373
 PY  C  10   0.07593     0.25024     0.04961    -0.04213    -0.10261    -0.02356
 PZ  C  10  -0.00309     0.00138     0.00514     0.00383     0.00059     0.01567
  
  S  C  11   0.08095    -0.03267     0.04699     0.03551    -0.06422    -0.03076
 PX  C  11   0.19720     0.09162     0.14035    -0.06772    -0.11432     0.12594
 PY  C  11   0.08814    -0.04679    -0.28254    -0.18112    -0.10106    -0.16904
 PZ  C  11   0.01181    -0.00558     0.01402     0.00178     0.00007     0.01620
  
  S  H  12   0.05710     0.05506     0.30189     0.12304    -0.01243     0.16580
  
  S  C  13  -0.10040    -0.04807    -0.01863    -0.06173    -0.07018     0.04392
 PX  C  13  -0.12451     0.08323     0.15171     0.10142    -0.18631     0.08840
 PY  C  13  -0.11543    -0.00417    -0.27959    -0.06898    -0.05409    -0.14165
 PZ  C  13   0.00736     0.00287     0.01800     0.02026    -0.00135     0.01003
  
  S  H  14   0.08857     0.02715     0.22416    -0.18896     0.01900     0.09746
  
  S  H  15   0.19733    -0.02074    -0.00246     0.14870     0.15918    -0.16089
  
  S  H  16  -0.13198    -0.01530     0.11383    -0.25494     0.10529    -0.22774
  
  S  H  17   0.12440     0.01971    -0.12801     0.27293    -0.00240     0.24496
  
  S  H  18  -0.22138    -0.04511     0.00560    -0.07917     0.20098     0.14504
  
  S  H  19  -0.07533    -0.03067    -0.21249     0.17802    -0.09418    -0.10927
  
  S  H  20  -0.08431    -0.06373    -0.29110    -0.12606    -0.00831    -0.12390
  
  S  C  21  -0.18090     0.02570     0.01893     0.06651    -0.01670    -0.01101
 PX  C  21   0.02428    -0.15014     0.15519     0.12780    -0.15437    -0.15219
 PY  C  21   0.08038    -0.14151    -0.10826    -0.13694    -0.07468     0.19970
 PZ  C  21   0.01281     0.00569    -0.01031    -0.01550     0.01629     0.02076
  
  S  C  22   0.16328    -0.00169    -0.06874    -0.11038    -0.01929     0.06587
 PX  C  22   0.17821    -0.06445    -0.01951    -0.01275     0.24808    -0.01997
 PY  C  22   0.01064     0.24676    -0.02222    -0.02409     0.02456    -0.06800
 PZ  C  22   0.01085     0.00765    -0.00156    -0.00958    -0.00074     0.00373
  
  S  C  23  -0.14070     0.02995     0.05969     0.07640    -0.06487    -0.05755
 PX  C  23  -0.05711     0.18430    -0.05158     0.04722     0.17117     0.02477
 PY  C  23  -0.13601    -0.16076     0.04714     0.14307     0.18753     0.01310
 PZ  C  23   0.02052    -0.01892     0.00390    -0.01143    -0.00701     0.00184
  
  S  C  24   0.15295     0.00462    -0.01086    -0.05862     0.00973    -0.01090
 PX  C  24  -0.09342    -0.16913     0.09079     0.01744    -0.20568    -0.04527
 PY  C  24   0.03295    -0.15711    -0.15029    -0.17421    -0.01463     0.22737
 PZ  C  24   0.02171    -0.00085    -0.00336    -0.00680     0.01964     0.01037
  
  S  H  25  -0.13368     0.05163     0.16703     0.19412    -0.02387    -0.22607
  
  S  H  26   0.22306    -0.06819    -0.04576    -0.06335     0.19904     0.01546
  
  S  H  27  -0.19138    -0.02600     0.04351     0.16332     0.17488    -0.00908
  
  S  H  28   0.13305    -0.04486    -0.16352    -0.17066     0.07963     0.18749
  
  S  C  29   0.06468    -0.08202    -0.16938    -0.12198     0.09357     0.03742
 PX  C  29  -0.14332     0.20645    -0.05277    -0.02801     0.10907     0.12818
 PY  C  29  -0.11956    -0.14327     0.09349     0.13662     0.19204     0.06491
 PZ  C  29   0.02525    -0.01700     0.01471     0.00477     0.00527     0.00269
  
  S  C  30  -0.03512    -0.00013     0.16876     0.16853     0.05184    -0.03340
 PX  C  30   0.14340    -0.03973    -0.05826     0.01124     0.23614    -0.12838
 PY  C  30   0.04570     0.28056     0.01773     0.02066    -0.02275    -0.10763
 PZ  C  30   0.02265     0.00223     0.00889     0.00727     0.01541    -0.00048




    ROOT NO.   25          26          27          28          29          30

           -14.91866   -14.88721   -14.71408   -14.50391   -13.88030   -13.45070
  
  
  S  C   1  -0.05062     0.02143     0.00793     0.00723    -0.05307     0.01691
 PX  C   1  -0.01192    -0.20418     0.03412    -0.07119    -0.13648     0.00789
 PY  C   1   0.11771     0.12782     0.18985    -0.03951    -0.11286     0.05040
 PZ  C   1   0.03744    -0.03296    -0.00758     0.11709    -0.11230    -0.22843
  
  S  C   2   0.05546    -0.01037     0.06861    -0.00152     0.01406    -0.02026
 PX  C   2   0.04342     0.19436     0.00375     0.04895     0.17778     0.01339
 PY  C   2  -0.14040    -0.07333     0.08209     0.03558     0.05544    -0.01143
 PZ  C   2   0.04207    -0.01411    -0.02193     0.16650    -0.09526    -0.25038
  
  S  C   3  -0.01341    -0.02175    -0.05858    -0.02901     0.00158     0.03039
 PX  C   3   0.12040     0.13350    -0.05476    -0.07756    -0.22252     0.05544
 PY  C   3   0.00536    -0.13073    -0.10972    -0.02753    -0.03554    -0.01157
 PZ  C   3   0.06689    -0.02834    -0.03852     0.25760    -0.12362    -0.28498
  
  S  C   4  -0.02070    -0.05458     0.00455     0.00666    -0.01967    -0.00268
 PX  C   4  -0.14319    -0.09560    -0.01258    -0.01783    -0.15755     0.10024
 PY  C   4  -0.00437     0.11828     0.11962    -0.02555    -0.16685     0.08744
 PZ  C   4   0.07687    -0.03802    -0.04109     0.25769    -0.11941    -0.27416
  
  S  C   5  -0.02179     0.08279    -0.00164     0.03016     0.02706    -0.01074
 PX  C   5   0.14147     0.05531     0.04597    -0.00388     0.13721    -0.07659
 PY  C   5  -0.03125    -0.02890     0.22821     0.01790     0.04101    -0.00957
 PZ  C   5   0.05624    -0.02156    -0.01360     0.16046    -0.08553    -0.24970
  
  S  C   6   0.05434     0.00788    -0.00562    -0.02665    -0.03935     0.02067
 PX  C   6  -0.02032     0.23519    -0.06296    -0.00649    -0.10618     0.11202
 PY  C   6  -0.08927    -0.11500    -0.21645    -0.00881    -0.00906     0.00846
 PZ  C   6   0.03227    -0.00612    -0.02758     0.12484    -0.10102    -0.22257
  
  S  C   7   0.04314    -0.05612     0.01130    -0.00945     0.00850    -0.02392
 PX  C   7  -0.08263    -0.13587     0.09129     0.01961     0.24297    -0.02656
 PY  C   7   0.36164     0.06506     0.03913    -0.07669     0.11280    -0.02237
 PZ  C   7   0.03196    -0.04932    -0.01537     0.24464    -0.02758    -0.14077
  
  S  C   8  -0.05342     0.01014    -0.05396     0.00212     0.03492     0.01565
 PX  C   8  -0.18177     0.13037     0.09622     0.10973     0.20617    -0.05185
 PY  C   8   0.16839    -0.08697    -0.18012    -0.09513     0.17272    -0.05451
 PZ  C   8   0.10633    -0.05384    -0.07619     0.24212    -0.01218    -0.14592
  
  S  C   9  -0.01949     0.00131    -0.00755     0.00703    -0.01420    -0.01631
 PX  C   9   0.19635    -0.14761    -0.09620    -0.10469    -0.22167     0.03521
 PY  C   9   0.10755    -0.10732    -0.04738    -0.08517    -0.08331     0.02950
 PZ  C   9   0.10729    -0.05845    -0.05656     0.31617     0.01414     0.00714
  
  S  C  10   0.02487    -0.01259    -0.00325    -0.01661    -0.00559     0.00767
 PX  C  10  -0.25946    -0.02135    -0.09669     0.04128    -0.19637     0.06571
 PY  C  10  -0.16177     0.02402    -0.05206     0.04691    -0.14995     0.00849
 PZ  C  10   0.07997    -0.04899    -0.02549     0.30136     0.00215     0.00572
  
  S  C  11  -0.03304     0.06979    -0.00160     0.02388    -0.02226    -0.00064
 PX  C  11   0.21898     0.03032     0.09083    -0.04217     0.18711    -0.07500
 PY  C  11  -0.15872    -0.18919     0.10053     0.04597     0.13884    -0.02596
 PZ  C  11   0.08233    -0.03055    -0.00087     0.23379     0.01783     0.15494
  
  S  H  12   0.19558     0.18189    -0.03509    -0.04063    -0.03661    -0.01176
  
  S  C  13   0.04670     0.00469     0.04461    -0.00165    -0.01662     0.01648
 PX  C  13  -0.01620     0.04798    -0.14220     0.00152     0.28113    -0.03250
 PY  C  13  -0.18863     0.15648     0.19519     0.14169     0.05043    -0.01377
 PZ  C  13   0.09390    -0.05625    -0.04635     0.24635     0.02790     0.15850
  
  S  H  14  -0.28674    -0.12325     0.01276     0.06964     0.01421    -0.00803
  
  S  H  15  -0.11404     0.01412    -0.15953     0.06001     0.14434    -0.01712
  
  S  H  16   0.14908     0.12734    -0.03119    -0.00962     0.03918     0.00657
  
  S  H  17  -0.08507    -0.00684     0.16100     0.02608    -0.00464     0.01931
  
  S  H  18   0.04351    -0.21278     0.05074    -0.01338     0.08888    -0.08863
  
  S  H  19   0.19471    -0.12063    -0.20249    -0.09404     0.05700    -0.02829
  
  S  H  20  -0.12060     0.10497     0.22156     0.09695    -0.08792     0.00440
  
  S  C  21  -0.07498     0.01116    -0.09173     0.02200    -0.01241     0.02082
 PX  C  21  -0.03926     0.01137     0.16515     0.05797     0.13566    -0.01927
 PY  C  21  -0.03062     0.31766    -0.15141     0.06435     0.07125    -0.03026
 PZ  C  21   0.06817    -0.02861    -0.00091     0.14575    -0.00250     0.25083
  
  S  C  22   0.02388     0.00146    -0.04138    -0.01775     0.04631    -0.01862
 PX  C  22   0.15995    -0.06083     0.20854    -0.06817    -0.17977     0.00168
 PY  C  22   0.00160    -0.29930    -0.04487    -0.07350    -0.01446     0.02865
 PZ  C  22   0.05373    -0.04397     0.01059     0.10863     0.00585     0.23285
  
  S  C  23  -0.02562    -0.02091     0.03821     0.02419     0.04514     0.00999
 PX  C  23  -0.13132     0.01261    -0.26759     0.02401    -0.07981     0.05529
 PY  C  23  -0.01578     0.26442     0.04691     0.05150    -0.13260    -0.01501
 PZ  C  23   0.06999    -0.04268     0.03659     0.11039     0.00925     0.23617
  
  S  C  24   0.04308    -0.09798     0.02230    -0.03689    -0.03527    -0.00041
 PX  C  24   0.11441     0.00037     0.27401     0.01274     0.11790    -0.01784
 PY  C  24   0.02379     0.10962    -0.19823    -0.00638     0.13202     0.01595
 PZ  C  24   0.06619    -0.04561    -0.01242     0.15534     0.00056     0.27049
  
  S  H  25  -0.02753    -0.22868     0.15099    -0.02136    -0.00372     0.01348
  
  S  H  26   0.15996    -0.04008     0.18003    -0.06630    -0.14613    -0.00658
  
  S  H  27  -0.08773     0.20637    -0.06099     0.05621    -0.12132    -0.00079
  
  S  H  28  -0.01297     0.04093    -0.25989    -0.02032     0.02872     0.03053
  
  S  C  29   0.00990     0.01974     0.03573     0.01102     0.01596    -0.00078
 PX  C  29   0.02136    -0.01257    -0.20705    -0.02342    -0.14614     0.06489
 PY  C  29   0.05729     0.16254    -0.01185    -0.01256    -0.15236     0.03431
 PZ  C  29   0.09945    -0.04272     0.02066     0.25585     0.02262     0.30125
  
  S  C  30   0.02553     0.03368     0.02865     0.00027     0.02937    -0.00847
 PX  C  30  -0.01043    -0.01990     0.14768    -0.01053    -0.27248     0.00565
 PY  C  30  -0.07582    -0.15196    -0.04201    -0.01756    -0.07347    -0.01606
 PZ  C  30   0.09831    -0.06582    -0.01103     0.25860     0.00894     0.31543




    ROOT NO.   31          32          33          34          35          36

           -13.10210   -13.00849   -12.09331   -11.75043   -11.73194   -11.53034
  
  
  S  C   1   0.01365    -0.01665     0.00441    -0.00062    -0.00566     0.00980
 PX  C   1  -0.03376     0.24563    -0.12203     0.00832    -0.02622     0.16796
 PY  C   1   0.27784     0.03367     0.15853     0.03043    -0.12076     0.00019
 PZ  C   1   0.04990    -0.01434    -0.04890    -0.29087    -0.05499    -0.09720
  
  S  C   2   0.02235     0.00490    -0.02369    -0.01257     0.04559    -0.01262
 PX  C   2   0.00819    -0.23809     0.09242     0.02440     0.07685    -0.15947
 PY  C   2  -0.19403    -0.07137    -0.16899    -0.01492     0.19767    -0.01781
 PZ  C   2   0.04315    -0.05231    -0.02958    -0.21533    -0.03751    -0.09022
  
  S  C   3  -0.01861    -0.02135     0.01048    -0.00166    -0.01270     0.01111
 PX  C   3   0.09286     0.14404    -0.12859    -0.03732    -0.01033     0.23973
 PY  C   3   0.12360     0.10477     0.22260     0.02616    -0.27665    -0.03828
 PZ  C   3   0.03415    -0.05366    -0.02480    -0.05148     0.00012    -0.01329
  
  S  C   4   0.00925     0.03077     0.00203     0.00726     0.01052    -0.00616
 PX  C   4   0.02339    -0.19086     0.18837     0.07711     0.01005    -0.21752
 PY  C   4  -0.04873    -0.08449    -0.19666     0.00251     0.28988     0.03778
 PZ  C   4   0.01459    -0.08163    -0.00862    -0.02206     0.03185    -0.01506
  
  S  C   5   0.01661    -0.02882    -0.02504    -0.02275     0.01263     0.03524
 PX  C   5  -0.00027     0.22018    -0.16892    -0.05635    -0.01810     0.20660
 PY  C   5   0.20552     0.06710     0.12697     0.01079    -0.12954     0.01426
 PZ  C   5   0.03679    -0.04468    -0.03207    -0.20951    -0.02208    -0.07784
  
  S  C   6   0.01448     0.00694     0.01010     0.01783     0.00566    -0.00691
 PX  C   6   0.06304    -0.23458     0.13385     0.06282     0.02987    -0.12314
 PY  C   6  -0.27124    -0.04954    -0.14491     0.00545     0.14161    -0.01314
 PZ  C   6   0.03354    -0.06705    -0.03518    -0.28554    -0.02901    -0.12963
  
  S  C   7   0.02648     0.07226    -0.02286     0.00161     0.05017     0.01928
 PX  C   7  -0.05252    -0.10276     0.11551     0.02189     0.04726    -0.23206
 PY  C   7   0.12218    -0.04040    -0.05866    -0.02389     0.22561    -0.01440
 PZ  C   7  -0.00146    -0.03998     0.03148     0.14570     0.01666    -0.00074
  
  S  C   8  -0.02112    -0.07308    -0.00364    -0.02257     0.03251     0.03546
 PX  C   8   0.15891     0.00799    -0.03785    -0.09603    -0.04343     0.22411
 PY  C   8  -0.05889     0.15705     0.08209    -0.02902    -0.24078    -0.01789
 PZ  C   8  -0.00558    -0.01193     0.05824     0.17573    -0.01554     0.09173
  
  S  C   9  -0.00515     0.05479    -0.00379     0.00238     0.00367    -0.00078
 PX  C   9  -0.15129     0.04991     0.04842     0.11402     0.01536    -0.24394
 PY  C   9   0.25267    -0.05293     0.04422    -0.05691     0.28864     0.02506
 PZ  C   9   0.01525     0.00146     0.07196     0.31689     0.05381     0.17577
  
  S  C  10  -0.05662    -0.03774     0.00480    -0.01804    -0.00901    -0.00643
 PX  C  10   0.14774    -0.08073     0.03561    -0.08021    -0.01583     0.26030
 PY  C  10  -0.22304     0.10703    -0.00921     0.07199    -0.28666    -0.02411
 PZ  C  10   0.00186    -0.00534     0.04289     0.29828     0.05370     0.08823
  
  S  C  11   0.03599     0.06669     0.01298    -0.01658     0.03246     0.03693
 PX  C  11  -0.11751     0.12369    -0.01788     0.06184     0.03703    -0.24210
 PY  C  11   0.09015     0.10552     0.13466    -0.05718     0.18340    -0.02353
 PZ  C  11  -0.01149     0.03489    -0.00461     0.13191     0.02265    -0.00984
  
  S  H  12  -0.11016     0.00270    -0.12691     0.08175    -0.13961    -0.09304
  
  S  C  13  -0.02408    -0.06600     0.03136    -0.01089     0.05048     0.02024
 PX  C  13  -0.04233    -0.09463     0.09670    -0.12236    -0.08171     0.20286
 PY  C  13  -0.14075     0.02312    -0.10278     0.04625    -0.21301     0.02094
 PZ  C  13   0.01815     0.02604     0.04835     0.13583     0.04639     0.11673
  
  S  H  14  -0.10789     0.02327     0.09695     0.04072    -0.16658    -0.09235
  
  S  H  15  -0.21250    -0.16426    -0.06323    -0.00377     0.12215    -0.08220
  
  S  H  16   0.17817    -0.03504     0.18910     0.02306    -0.13420    -0.06702
  
  S  H  17   0.18264    -0.04721     0.18608     0.02728    -0.11667    -0.07160
  
  S  H  18  -0.06473     0.23908    -0.13470    -0.04244    -0.02589     0.13295
  
  S  H  19  -0.13451     0.09175     0.10075     0.04035    -0.19734    -0.11643
  
  S  H  20  -0.11217     0.02838    -0.13075     0.09561    -0.14713    -0.08456
  
  S  C  21   0.03419     0.01433     0.02193    -0.02501     0.00476     0.03748
 PX  C  21   0.13001     0.16931    -0.15581     0.05761     0.03500    -0.21349
 PY  C  21  -0.08408     0.21043     0.14163    -0.04989     0.10082    -0.03557
 PZ  C  21  -0.04135     0.01267    -0.01755    -0.22149    -0.05181    -0.06221
  
  S  C  22   0.01229    -0.00998    -0.00619     0.01704     0.00774    -0.00881
 PX  C  22  -0.19587    -0.16947     0.10747    -0.03015    -0.04371     0.13984
 PY  C  22   0.14310    -0.21972    -0.16300     0.06203    -0.10212     0.03826
 PZ  C  22  -0.02459    -0.00686    -0.04416    -0.29602    -0.08035    -0.07702
  
  S  C  23   0.00252     0.00052    -0.00368    -0.02355    -0.01439     0.00924
 PX  C  23   0.19714     0.14630    -0.12122     0.02099     0.04066    -0.15297
 PY  C  23  -0.14969     0.18832     0.16171    -0.04347     0.08843    -0.00860
 PZ  C  23  -0.03837    -0.01774    -0.03335    -0.30563    -0.08003    -0.05462
  
  S  C  24   0.00542    -0.01385     0.03393    -0.00005     0.04296    -0.00772
 PX  C  24  -0.18194    -0.16134     0.07457    -0.05252    -0.08195     0.14882
 PY  C  24   0.10428    -0.17549    -0.20168     0.04632    -0.14904     0.02651
 PZ  C  24   0.00516     0.02257    -0.04645    -0.22066    -0.04293    -0.05860
  
  S  H  25   0.14918    -0.08503    -0.20147     0.07933    -0.07405    -0.06678
  
  S  H  26  -0.19785    -0.15976     0.11579    -0.03049    -0.03847     0.13852
  
  S  H  27  -0.03234     0.22842     0.08386    -0.01427     0.09642    -0.07403
  
  S  H  28   0.17023    -0.07513    -0.20300     0.06568    -0.07800    -0.06153
  
  S  C  29  -0.01154    -0.03066    -0.00877     0.00747     0.00603    -0.01278
 PX  C  29  -0.12492    -0.13350     0.17678    -0.09553    -0.02692     0.22253
 PY  C  29   0.00704    -0.13928    -0.24573     0.09658    -0.21296     0.00072
 PZ  C  29  -0.01078     0.06195    -0.04117    -0.04682    -0.00511    -0.07398
  
  S  C  30   0.01041     0.02205    -0.01504    -0.01258    -0.01260     0.00748
 PX  C  30   0.03371     0.13317    -0.12076     0.12572     0.04181    -0.21618
 PY  C  30  -0.03919     0.17012     0.27277    -0.09007     0.20502     0.02396
 PZ  C  30   0.00765     0.05994    -0.00924    -0.06139     0.01394    -0.00883




    ROOT NO.   37          38          39          40          41          42

           -10.61137    -9.86617    -9.68493    -8.26367    -8.08047    -6.66943
  
  
  S  C   1   0.00159    -0.00576     0.00266     0.00205     0.00673     0.00177
 PX  C   1  -0.00180     0.02339    -0.03637    -0.03253    -0.02171    -0.02104
 PY  C   1  -0.00257     0.00998    -0.01532    -0.01228    -0.00817    -0.00777
 PZ  C   1   0.06968    -0.25698     0.27445     0.25792     0.24339     0.19443
  
  S  C   2   0.00903     0.00808     0.02127     0.02108    -0.00614     0.00888
 PX  C   2  -0.01428     0.00289    -0.00292    -0.00520    -0.00021    -0.00867
 PY  C   2  -0.00407     0.00358     0.01230     0.01186    -0.00078     0.00080
 PZ  C   2   0.19716     0.01171     0.36873     0.34407    -0.03429     0.20909
  
  S  C   3  -0.00988    -0.03501    -0.01168    -0.00463     0.03122     0.01406
 PX  C   3   0.00542    -0.02842    -0.01996    -0.00568     0.02656     0.01675
 PY  C   3   0.00334    -0.00136    -0.00503    -0.00806    -0.01146    -0.00127
 PZ  C   3   0.22918     0.32205     0.15338    -0.00463    -0.32390    -0.14790
  
  S  C   4  -0.00539    -0.00236     0.00438     0.00877     0.00839    -0.00225
 PX  C   4  -0.00701    -0.00488     0.02071     0.01076     0.01718    -0.01036
 PY  C   4  -0.00030    -0.01330     0.01902     0.01742     0.04432    -0.00313
 PZ  C   4  -0.19979     0.17745    -0.30708    -0.06727    -0.35581     0.12579
  
  S  C   5  -0.00477    -0.00640    -0.01198    -0.01156    -0.00146    -0.00396
 PX  C   5   0.02213     0.01097     0.00600     0.00842    -0.00611     0.01223
 PY  C   5   0.00790     0.01434     0.00558     0.01164    -0.00816     0.00996
 PZ  C   5  -0.22287    -0.22342    -0.30036    -0.33350     0.01894    -0.21210
  
  S  C   6   0.00331     0.01085     0.00246     0.00530    -0.00515     0.00367
 PX  C   6   0.00557     0.02635     0.01204     0.01747    -0.01532     0.01167
 PY  C   6   0.00317     0.00793     0.01041     0.01085    -0.00270     0.00591
 PZ  C   6  -0.13292    -0.38287    -0.08190    -0.18702     0.28100    -0.16732
  
  S  C   7   0.02879     0.02886     0.00544    -0.02248     0.00549    -0.03127
 PX  C   7  -0.05520    -0.02142    -0.00679     0.03173     0.00123     0.03685
 PY  C   7   0.02541     0.02293     0.00548    -0.00978     0.01066    -0.01242
 PZ  C   7   0.33444     0.25534     0.12754    -0.25428     0.05935    -0.36859
  
  S  C   8   0.00752    -0.00099    -0.00118    -0.00039    -0.00300     0.00675
 PX  C   8   0.01169    -0.00338    -0.01392    -0.00862    -0.01080     0.00406
 PY  C   8   0.06073    -0.02186     0.04073    -0.03998    -0.00093    -0.04981
 PZ  C   8  -0.29899     0.13852    -0.25865     0.21980    -0.04564     0.36285
  
  S  C   9  -0.00786     0.00010    -0.00947     0.00440     0.00556     0.00487
 PX  C   9  -0.01940     0.00576     0.01063     0.01315     0.01706    -0.00320
 PY  C   9   0.01517     0.01539    -0.01864     0.00339    -0.00447     0.00740
 PZ  C   9  -0.24144    -0.00091    -0.00304     0.25433     0.33069     0.01276
  
  S  C  10  -0.00586    -0.01034     0.01084     0.01151    -0.02421    -0.00290
 PX  C  10   0.03018    -0.00919    -0.01393    -0.01070    -0.01061    -0.00063
 PY  C  10  -0.00934    -0.01106     0.00968    -0.00803     0.00157    -0.01230
 PZ  C  10   0.28358    -0.00379    -0.00537    -0.21773     0.40046     0.01453
  
  S  C  11   0.01045     0.00377    -0.00704    -0.00723     0.00757     0.00499
 PX  C  11  -0.04028     0.02227     0.01261     0.01627     0.00560    -0.01168
 PY  C  11   0.00610     0.00502    -0.00941     0.00187     0.00371     0.00578
 PZ  C  11   0.35360    -0.27459    -0.13773    -0.19425     0.01055     0.38214
  
  S  H  12  -0.02022     0.00654     0.01036     0.00384     0.00451    -0.00819
  
  S  C  13  -0.00149    -0.00154     0.00100     0.00056    -0.00302     0.00577
 PX  C  13   0.04477    -0.01335    -0.00819    -0.02139    -0.01311     0.01649
 PY  C  13  -0.02620    -0.01344     0.01936     0.00339    -0.00208    -0.01437
 PZ  C  13  -0.31033    -0.13752     0.26611     0.19665    -0.00684    -0.37810
  
  S  H  14  -0.03248    -0.01115    -0.00507     0.01143    -0.00815     0.01339
  
  S  H  15  -0.00355    -0.00008     0.00872     0.00473    -0.00191    -0.00044
  
  S  H  16  -0.00388     0.00219    -0.01134    -0.01249    -0.00558    -0.00624
  
  S  H  17  -0.00150     0.00781     0.00139     0.00425    -0.00799     0.00281
  
  S  H  18   0.00273    -0.00331    -0.00815    -0.00853    -0.00108    -0.00370
  
  S  H  19   0.01621    -0.00184     0.01673    -0.00931    -0.00361    -0.00882
  
  S  H  20  -0.03090     0.00021     0.01074     0.00496     0.00632    -0.00421
  
  S  C  21   0.00862     0.00036    -0.00097    -0.00829     0.00141     0.00573
 PX  C  21  -0.01249     0.02641    -0.03181     0.03972     0.00821    -0.02349
 PY  C  21  -0.01033     0.01590     0.00700    -0.00658     0.00656     0.00374
 PZ  C  21   0.20409     0.01175    -0.34665     0.35438    -0.03502    -0.25541
  
  S  C  22  -0.00599    -0.01366     0.01403    -0.00876    -0.01370     0.00540
 PX  C  22   0.01315    -0.01515     0.00334    -0.00404    -0.00133     0.00151
 PY  C  22   0.00601    -0.02567     0.00744    -0.00738    -0.01447     0.00563
 PZ  C  22   0.07529     0.28793    -0.27949     0.24810     0.24412    -0.19170
  
  S  C  23  -0.00415     0.01613     0.00149    -0.00740     0.01055     0.00629
 PX  C  23  -0.01871     0.05954    -0.01096    -0.00976     0.03792     0.01959
 PY  C  23  -0.00340     0.00953     0.00245    -0.00523     0.00401     0.00511
 PZ  C  23  -0.11465     0.38352     0.03347    -0.18972     0.27002     0.21187
  
  S  C  24  -0.00018     0.00094     0.00213    -0.00502     0.00112     0.00712
 PX  C  24  -0.00221    -0.01910     0.02674    -0.02059    -0.01786     0.00581
 PY  C  24   0.00538    -0.01388    -0.00434     0.00975    -0.00806    -0.01089
 PZ  C  24  -0.22059     0.20794     0.26765    -0.34515     0.00647     0.24082
  
  S  H  25  -0.00496     0.00074    -0.00773     0.00941     0.00300    -0.00364
  
  S  H  26   0.01345    -0.01778     0.00294    -0.00034    -0.00234    -0.00309
  
  S  H  27  -0.00416     0.01420    -0.00742     0.00599     0.00566    -0.00300
  
  S  H  28  -0.00305     0.00417    -0.00834     0.00904     0.00335    -0.00508
  
  S  C  29  -0.00218    -0.00775    -0.00063     0.00505    -0.00590     0.00160
 PX  C  29   0.04745    -0.04471    -0.00306    -0.01519    -0.03244     0.01345
 PY  C  29  -0.01358    -0.00037     0.00560     0.00308     0.00499    -0.00747
 PZ  C  29   0.24257    -0.32124    -0.14525     0.03464    -0.32609     0.11916
  
  S  C  30  -0.00270     0.00071     0.00763    -0.00418    -0.00781    -0.00792
 PX  C  30  -0.03145     0.02449    -0.00930     0.01835     0.02326    -0.00140
 PY  C  30   0.02256     0.00842    -0.01518    -0.00377     0.00997     0.01218
 PZ  C  30  -0.20886    -0.16970     0.31236    -0.08760    -0.31912    -0.14809




    ROOT NO.   43          44          45          46          47          48

            -1.10163     0.18698     0.30158     1.30247     1.33523     1.84783
  
  
  S  C   1  -0.00931     0.00131    -0.01555    -0.02068    -0.00046    -0.01149
 PX  C   1   0.01605    -0.01565     0.02270     0.02092     0.01187     0.00093
 PY  C   1   0.00559    -0.00932     0.00912     0.01231     0.01023     0.00203
 PZ  C   1  -0.20633     0.19056    -0.30382    -0.32801    -0.16687    -0.06356
  
  S  C   2   0.01469    -0.01104     0.02605     0.03906     0.00998     0.02059
 PX  C   2  -0.00993    -0.01283    -0.01739    -0.01402     0.01395    -0.00884
 PY  C   2   0.00172    -0.01317    -0.00025     0.00231     0.01428    -0.00262
 PZ  C   2   0.20654     0.08965     0.33929     0.33915    -0.11859     0.18961
  
  S  C   3  -0.00984     0.04848    -0.00678    -0.01856    -0.04861     0.00451
 PX  C   3  -0.00311     0.02312     0.00721     0.00979    -0.01711     0.00846
 PY  C   3   0.01057     0.00747     0.00873     0.00414    -0.00618     0.00591
 PZ  C   3   0.16279    -0.31838     0.05575    -0.06519     0.36182    -0.23277
  
  S  C   4   0.00231    -0.02853     0.00707     0.00931     0.02821    -0.01659
 PX  C   4   0.00291    -0.02264     0.01341     0.01853     0.00641     0.00840
 PY  C   4  -0.01624    -0.01619     0.00700     0.02455    -0.01009     0.01914
 PZ  C   4   0.12200     0.34055    -0.14223    -0.35114    -0.08142    -0.20195
  
  S  C   5   0.00159     0.00856     0.00387     0.00663    -0.01643     0.02033
 PX  C   5  -0.01421     0.00542    -0.02213    -0.01425     0.00660    -0.00394
 PY  C   5  -0.00706    -0.00053    -0.01093    -0.00703     0.00699    -0.00545
 PZ  C   5   0.21498     0.08675     0.32655     0.21369    -0.30085     0.21825
  
  S  C   6   0.00556     0.00806     0.00668     0.00167    -0.01062     0.00040
 PX  C   6   0.01098     0.01818     0.00926    -0.00124    -0.02160     0.00604
 PY  C   6   0.00282     0.00838    -0.00042    -0.00813    -0.00879    -0.00414
 PZ  C   6  -0.16649    -0.31016    -0.13602     0.03419     0.39046    -0.12996
  
  S  C   7  -0.02845    -0.01319    -0.01685     0.01478    -0.00355     0.02296
 PX  C   7   0.02486     0.02814     0.01567    -0.00693     0.00537    -0.02119
 PY  C   7  -0.01399     0.00562    -0.00622     0.00408    -0.00378     0.00416
 PZ  C   7  -0.35696    -0.09639    -0.23894     0.05847    -0.27765     0.33744
  
  S  C   8  -0.00689     0.00684    -0.00359    -0.00375    -0.00497     0.01050
 PX  C   8  -0.00406    -0.00266    -0.00229     0.00238     0.00665     0.00755
 PY  C   8   0.04498     0.00519     0.02583    -0.03273     0.00043    -0.03921
 PZ  C   8  -0.36170    -0.08461    -0.20066     0.28621     0.05457     0.29224
  
  S  C   9   0.00464     0.00627     0.00485     0.00252    -0.00421    -0.02554
 PX  C   9   0.00290    -0.00087     0.00369     0.00166    -0.00048    -0.00731
 PY  C   9  -0.00463    -0.00678    -0.00956     0.00286    -0.00346     0.00424
 PZ  C   9   0.01501    -0.28544     0.31386    -0.00826     0.00079    -0.23502
  
  S  C  10   0.01198    -0.02747    -0.00041    -0.01398    -0.00230     0.00456
 PX  C  10  -0.01409    -0.00832    -0.00325     0.00211    -0.00992     0.00057
 PY  C  10  -0.00189     0.00060    -0.00463    -0.00208    -0.00362     0.01134
 PZ  C  10  -0.02000     0.43330     0.16338    -0.00418     0.00256    -0.30307
  
  S  C  11   0.00234     0.01029    -0.00771     0.01184     0.01123     0.01076
 PX  C  11   0.00072    -0.00370     0.00370    -0.00269    -0.00048    -0.00650
 PY  C  11   0.00486     0.00317    -0.00161     0.00216     0.00735     0.00199
 PZ  C  11   0.37578    -0.03675    -0.19104    -0.05371     0.28686     0.35762
  
  S  H  12  -0.00091    -0.00161     0.00393    -0.00526    -0.00183    -0.00327
  
  S  C  13  -0.00814    -0.00670     0.00061    -0.00394     0.00228     0.02820
 PX  C  13  -0.01357     0.00021     0.01285     0.00382     0.00365    -0.00931
 PY  C  13   0.01356     0.00215    -0.00307    -0.01012    -0.00120     0.00288
 PZ  C  13   0.38120    -0.03520    -0.20270    -0.28073    -0.05789     0.30198
  
  S  H  14   0.01444     0.00591     0.00769    -0.00792     0.00561    -0.01249
  
  S  H  15   0.00579    -0.00368     0.00954     0.01372     0.00379     0.00645
  
  S  H  16  -0.00398     0.00384    -0.01351    -0.02339    -0.00028    -0.01494
  
  S  H  17   0.00069    -0.00384    -0.00311    -0.00551     0.01125    -0.01237
  
  S  H  18  -0.00267    -0.00483    -0.00374    -0.00063     0.00752    -0.00034
  
  S  H  19   0.00296    -0.00286    -0.00035     0.00587     0.00680     0.00060
  
  S  H  20   0.00038     0.00622     0.00270     0.00447     0.00375    -0.01367
  
  S  C  21   0.00637     0.00627    -0.01292     0.02155     0.00979    -0.00535
 PX  C  21  -0.01426     0.00122     0.02142    -0.02429    -0.00054     0.00982
 PY  C  21   0.00842     0.00003    -0.01180     0.01318    -0.00032    -0.00634
 PZ  C  21  -0.25235     0.07206     0.33646    -0.34705     0.06861     0.19039
  
  S  C  22  -0.01613    -0.00874     0.02403    -0.03119    -0.01044     0.00872
 PX  C  22   0.00480     0.00050    -0.00597     0.00522    -0.00063    -0.00274
 PY  C  22  -0.00857    -0.00132     0.01023    -0.00858     0.00411     0.00821
 PZ  C  22   0.19135     0.20720    -0.27024     0.34871     0.21349    -0.05276
  
  S  C  23   0.01522    -0.01162    -0.01822     0.01092    -0.02484    -0.02305
 PX  C  23   0.02110    -0.02512    -0.01375    -0.00383    -0.02787    -0.00701
 PY  C  23  -0.00123    -0.00632     0.00453    -0.00954    -0.00834     0.00015
 PZ  C  23   0.21678    -0.29162    -0.14553    -0.06860    -0.38142    -0.13705
  
  S  C  24  -0.00837     0.00051     0.01503    -0.01390     0.01470     0.02308
 PX  C  24  -0.01665     0.01018     0.01791    -0.00777     0.01875     0.01051
 PY  C  24   0.00430     0.00232    -0.00970     0.00965    -0.00606    -0.01196
 PZ  C  24  -0.24214     0.06359     0.33253    -0.21018     0.26910     0.23558
  
  S  H  25  -0.00048    -0.00245     0.00512    -0.01123    -0.00094     0.00831
  
  S  H  26   0.00804     0.00909    -0.01482     0.02288     0.01245    -0.00364
  
  S  H  27  -0.00621     0.00861     0.00852    -0.00326     0.01914     0.01559
  
  S  H  28   0.00447    -0.00046    -0.00799     0.00800    -0.00528    -0.00887
  
  S  C  29   0.00007    -0.01332     0.00621    -0.01734    -0.01670     0.00056
 PX  C  29  -0.01133    -0.01704     0.00174     0.00381    -0.02043    -0.01541
 PY  C  29   0.00264     0.00081    -0.00079    -0.00463     0.00488     0.01428
 PZ  C  29  -0.12140    -0.33095     0.01278     0.05871    -0.35624    -0.25272
  
  S  C  30  -0.00078     0.01164    -0.00765     0.01617    -0.00219    -0.02642
 PX  C  30   0.00515    -0.00609    -0.00281    -0.00215    -0.00257     0.00819
 PY  C  30   0.00558    -0.01090    -0.00003    -0.00705    -0.00956    -0.00111
 PZ  C  30  -0.15784     0.29902    -0.13260     0.36038     0.08346    -0.21729




    ROOT NO.   49          50          51          52          53          54

             2.38095     2.46270     2.90558     3.15411     3.29147     3.38046
  
  
  S  C   1   0.03945     0.10753    -0.19810    -0.04714    -0.20682    -0.19381
 PX  C   1  -0.01471     0.03083    -0.01049     0.01268     0.03969    -0.05669
 PY  C   1  -0.01292     0.02122    -0.03488     0.01675    -0.04526     0.03126
 PZ  C   1   0.30636    -0.10874     0.02889    -0.24033    -0.03110     0.06034
  
  S  C   2  -0.05632    -0.14776     0.21137     0.03256     0.11522     0.22948
 PX  C   2   0.00893    -0.02901    -0.00110    -0.02741    -0.06243     0.00289
 PY  C   2  -0.00701    -0.05102     0.04493    -0.01233    -0.00659     0.03795
 PZ  C   2  -0.22796     0.08687    -0.03402     0.25534     0.03244    -0.07828
  
  S  C   3   0.04693     0.23059    -0.25173     0.02318    -0.03638    -0.19629
 PX  C   3  -0.01168     0.01774     0.06413    -0.00477     0.11324    -0.06322
 PY  C   3  -0.00075     0.03717    -0.03494     0.03375    -0.00892     0.11632
 PZ  C   3   0.06776     0.00306    -0.01854    -0.30303    -0.07158     0.04471
  
  S  C   4  -0.04333    -0.23253     0.28731    -0.06191     0.13499    -0.15909
 PX  C   4  -0.00131    -0.03161    -0.02066    -0.01883    -0.08767     0.01893
 PY  C   4   0.00037     0.00347    -0.04374    -0.01538    -0.03071    -0.14809
 PZ  C   4  -0.01920     0.00553    -0.00027     0.30568     0.06624    -0.05888
  
  S  C   5   0.03237     0.15612    -0.25187     0.01741    -0.23026     0.11694
 PX  C   5  -0.00116     0.05961    -0.04890     0.03664     0.01329     0.06222
 PY  C   5  -0.00668    -0.00554     0.02392     0.01016     0.04145     0.01815
 PZ  C   5   0.21024    -0.07627     0.02093    -0.26072    -0.03730     0.04034
  
  S  C   6  -0.01645    -0.11602     0.21954     0.00292     0.26212    -0.00275
 PX  C   6   0.01023    -0.03141     0.03513    -0.00967     0.01811     0.01535
 PY  C   6   0.01148    -0.01429     0.00370    -0.02483    -0.01151    -0.09397
 PZ  C   6  -0.30346     0.09827    -0.00993     0.24724     0.05165    -0.04546
  
  S  C   7  -0.04604    -0.24564     0.10286     0.06349    -0.17944     0.22188
 PX  C   7  -0.01372     0.00205    -0.08916     0.02506    -0.10202    -0.02060
 PY  C   7  -0.01903    -0.07223    -0.01904     0.02757    -0.09215     0.02476
 PZ  C   7   0.12954    -0.00609    -0.03049     0.13177     0.05869    -0.07976
  
  S  C   8   0.05656     0.24753    -0.15715     0.01771     0.06193     0.29218
 PX  C   8   0.00990     0.03183     0.06865    -0.02553     0.10142     0.04033
 PY  C   8   0.02147    -0.03276     0.05950     0.00143     0.05748    -0.00098
 PZ  C   8  -0.20446     0.03713     0.02388    -0.15066    -0.02866     0.01447
  
  S  C   9  -0.07532    -0.29634     0.01219     0.04038    -0.25308    -0.27394
 PX  C   9  -0.00611    -0.01741    -0.08720     0.02036    -0.06030     0.07084
 PY  C   9   0.00840     0.04288    -0.02945    -0.04423     0.11834    -0.13085
 PZ  C   9   0.38119    -0.07940    -0.03830     0.00184     0.02527    -0.01455
  
  S  C  10   0.08993     0.31192     0.02200    -0.10802     0.36544    -0.14228
 PX  C  10   0.00061    -0.00634     0.08092    -0.00586    -0.01806    -0.07840
 PY  C  10   0.00905     0.02573     0.02883     0.00929     0.03576     0.15659
 PZ  C  10  -0.30114     0.09740     0.04264    -0.00294    -0.00048     0.02977
  
  S  C  11  -0.06171    -0.25974    -0.15692     0.07587    -0.17048     0.19796
 PX  C  11   0.02232     0.05803    -0.05895    -0.03062     0.14819    -0.02372
 PY  C  11  -0.00302    -0.03328    -0.06736    -0.00825     0.05876     0.01068
 PZ  C  11   0.10041    -0.03444    -0.02433    -0.15886     0.00768    -0.01844
  
  S  H  12   0.03544     0.14252     0.08986    -0.04299     0.10694    -0.08113
  
  S  C  13   0.05794     0.23228     0.11998     0.02162     0.03536     0.30463
 PX  C  13   0.01360     0.00011     0.08632     0.02478    -0.10651    -0.00691
 PY  C  13  -0.01764    -0.05290     0.02287     0.01864    -0.06405    -0.04092
 PZ  C  13  -0.18488     0.03516     0.01974     0.14700    -0.00428    -0.00425
  
  S  H  14   0.02256     0.12636    -0.06265    -0.03179     0.09911    -0.08875
  
  S  H  15  -0.02774    -0.06921     0.12557     0.03561     0.12974     0.14161
  
  S  H  16   0.03075     0.07755    -0.12790    -0.01437    -0.08528    -0.10676
  
  S  H  17  -0.01861    -0.08314     0.14816    -0.00348     0.14372    -0.03705
  
  S  H  18   0.00832     0.07480    -0.13835     0.00469    -0.16594     0.02111
  
  S  H  19  -0.03891    -0.14156     0.09368    -0.00657    -0.06753    -0.14135
  
  S  H  20  -0.02812    -0.13055    -0.07960    -0.00728    -0.03871    -0.14741
  
  S  C  21  -0.01912    -0.16758    -0.25431     0.02362     0.17301     0.19596
 PX  C  21  -0.00218     0.05496     0.04401    -0.01343     0.02136    -0.01682
 PY  C  21   0.01040    -0.00300    -0.01501     0.01107     0.03610     0.00875
 PZ  C  21  -0.24684     0.00837    -0.03823    -0.24200     0.00295     0.03164
  
  S  C  22  -0.00317     0.11568     0.20519    -0.03500    -0.21637    -0.15203
 PX  C  22  -0.00740    -0.02714    -0.03336    -0.00525     0.01673     0.00412
 PY  C  22  -0.00417    -0.02421    -0.02349     0.01219    -0.01943     0.06805
 PZ  C  22   0.32107    -0.02194     0.04050     0.22141    -0.01154    -0.04702
  
  S  C  23  -0.04172    -0.09647    -0.17549    -0.03441     0.22045    -0.02846
 PX  C  23  -0.01117     0.02437     0.01055     0.00155    -0.00254     0.08695
 PY  C  23  -0.00834     0.02642     0.04497    -0.01762    -0.04532    -0.04740
 PZ  C  23  -0.30698     0.05219     0.00253    -0.22544    -0.03228     0.03823
  
  S  C  24   0.04750     0.13518     0.19406     0.04927    -0.19307     0.15554
 PX  C  24   0.00860    -0.02148     0.00053     0.00862    -0.03052    -0.04833
 PY  C  24  -0.01802    -0.04909    -0.05226    -0.01842     0.03019    -0.04992
 PZ  C  24   0.21688    -0.04813    -0.00629     0.24870     0.03166    -0.04428
  
  S  H  25   0.01433     0.09105     0.15469    -0.00245    -0.12541    -0.09772
  
  S  H  26   0.01034    -0.07516    -0.13085     0.03390     0.13804     0.10743
  
  S  H  27   0.03305     0.05775     0.10479     0.03166    -0.13269     0.02784
  
  S  H  28  -0.01980    -0.06775    -0.10986    -0.01830     0.11024    -0.05713
  
  S  C  29   0.04433     0.23944     0.29335    -0.01201    -0.10254    -0.13568
 PX  C  29  -0.00891    -0.02745     0.02196     0.00893    -0.06474    -0.07448
 PY  C  29  -0.00015     0.00102     0.04883     0.03459    -0.10435     0.12024
 PZ  C  29   0.08934    -0.00202     0.02061     0.31333     0.00782    -0.00360
  
  S  C  30  -0.06079    -0.21760    -0.25593    -0.05861     0.16624    -0.20635
 PX  C  30  -0.00070     0.01084    -0.05835     0.00114     0.06739     0.10084
 PY  C  30   0.00332     0.03921     0.03964    -0.01223     0.02129    -0.08445
 PZ  C  30  -0.04808     0.01798    -0.00206    -0.30851    -0.02339     0.03408




    ROOT NO.   55          56          57          58          59          60

             3.55061     3.70200     3.78122     3.94116     4.26209     4.28460
  
  
  S  C   1  -0.14499    -0.24944    -0.22416     0.15012     0.03497     0.14517
 PX  C   1   0.02726     0.06127     0.09834     0.10202     0.01467     0.09499
 PY  C   1  -0.00249    -0.03840    -0.05162    -0.07956    -0.02220    -0.04837
 PZ  C   1  -0.10637     0.07123     0.03408    -0.01910    -0.00688    -0.00511
  
  S  C   2   0.04773     0.02679    -0.07978    -0.28524    -0.04158    -0.28462
 PX  C   2  -0.06496    -0.11651    -0.14543    -0.01408     0.00293     0.02400
 PY  C   2  -0.02574    -0.04505    -0.06813    -0.00362     0.00216     0.07124
 PZ  C   2   0.13426    -0.09240    -0.03908     0.03979     0.00961     0.03467
  
  S  C   3   0.06591     0.17226     0.29938     0.18097     0.04500    -0.03790
 PX  C   3  -0.00832     0.00174    -0.03990     0.01474     0.03201    -0.15864
 PY  C   3   0.06040     0.07346     0.05961    -0.14568    -0.03609    -0.09384
 PZ  C   3  -0.22653     0.14987     0.09197     0.00843    -0.00342    -0.00917
  
  S  C   4  -0.11807    -0.19137    -0.23726     0.14785     0.04438     0.03008
 PX  C   4  -0.04075    -0.05781    -0.06419    -0.11785    -0.01754    -0.16417
 PY  C   4  -0.01527     0.03030     0.10749     0.10416     0.04243    -0.10739
 PZ  C   4   0.24043    -0.13626    -0.05905     0.00878     0.01870    -0.03224
  
  S  C   5  -0.00746    -0.03053    -0.03740    -0.27281    -0.04526    -0.30369
 PX  C   5   0.06921     0.11516     0.13994    -0.00481     0.00522     0.02498
 PY  C   5   0.03095     0.06113     0.06538    -0.01408    -0.00131    -0.05451
 PZ  C   5  -0.14569     0.08061     0.03629     0.00622    -0.00568     0.02519
  
  S  C   6   0.10299     0.24470     0.27431     0.14464     0.03399     0.06780
 PX  C   6  -0.00049    -0.00050    -0.01141    -0.01386    -0.01107     0.02517
 PY  C   6  -0.04896    -0.07705    -0.06577     0.12717     0.02531     0.14261
 PZ  C   6   0.12176    -0.04816    -0.01006     0.01628     0.00647     0.00407
  
  S  C   7   0.03095    -0.11707    -0.05570    -0.13756    -0.10068     0.31710
 PX  C   7   0.01989     0.05540     0.14246     0.06777     0.01734     0.04202
 PY  C   7   0.01134     0.00412     0.06461     0.03014     0.02738    -0.02036
 PZ  C   7   0.20689    -0.08207    -0.01166     0.02924     0.02019    -0.04033
  
  S  C   8   0.09442     0.14004    -0.00234    -0.12647    -0.08644     0.33349
 PX  C   8  -0.03820    -0.04582    -0.12313     0.06829     0.05885    -0.01603
 PY  C   8   0.01029    -0.04683    -0.07675     0.02139    -0.00974     0.10772
 PZ  C   8  -0.23771     0.10686     0.02148    -0.00209    -0.02337     0.02948
  
  S  C   9   0.01363    -0.01559     0.24016    -0.02028    -0.11505    -0.09952
 PX  C   9   0.05136     0.06959     0.04259    -0.08474    -0.07245     0.15611
 PY  C   9  -0.00227     0.03751    -0.06275    -0.05680    -0.12533    -0.03567
 PZ  C   9   0.31637    -0.12958    -0.01452     0.01085     0.02853    -0.02158
  
  S  C  10  -0.04388     0.00785    -0.19757    -0.00829    -0.06013    -0.10301
 PX  C  10  -0.00120    -0.06413     0.03944    -0.10375    -0.16823     0.05156
 PY  C  10   0.00749    -0.02565    -0.09831    -0.03880     0.02375     0.13583
 PZ  C  10  -0.29039     0.11376    -0.00908    -0.01801    -0.02403     0.00696
  
  S  C  11   0.03988     0.13011    -0.03516     0.17218     0.33142    -0.04349
 PX  C  11  -0.01269     0.04823    -0.11975     0.05995     0.00964    -0.04911
 PY  C  11   0.00585     0.03967    -0.07150     0.02939    -0.07222    -0.00948
 PZ  C  11   0.22650    -0.09153     0.00773     0.00602     0.00782    -0.00611
  
  S  H  12  -0.02240    -0.10050     0.01916    -0.10708    -0.30151     0.05427
  
  S  C  13  -0.06545    -0.12766    -0.02092     0.15951     0.33369    -0.05236
 PX  C  13  -0.00339    -0.07863     0.12730     0.04915    -0.07088    -0.03238
 PY  C  13  -0.01183    -0.01868     0.06530     0.03321     0.04035    -0.03564
 PZ  C  13  -0.24782     0.10127     0.00100    -0.01646    -0.02743     0.01766
  
  S  H  14  -0.01783     0.08090     0.02683     0.07858     0.09975    -0.26514
  
  S  H  15   0.10121     0.16617     0.14998    -0.10942    -0.03306    -0.06461
  
  S  H  16  -0.02261    -0.01322     0.05542     0.17174     0.01775     0.24693
  
  S  H  17   0.01566     0.02588     0.02211     0.16917     0.02281     0.26709
  
  S  H  18  -0.05740    -0.15448    -0.17760    -0.10495    -0.03201    -0.00645
  
  S  H  19  -0.07528    -0.10141    -0.00325     0.08129     0.10614    -0.31734
  
  S  H  20   0.05710     0.08851     0.01317    -0.09559    -0.30113     0.06289
  
  S  C  21  -0.06182    -0.06983    -0.02480     0.25526    -0.29663    -0.10446
 PX  C  21  -0.04111    -0.13042     0.12977    -0.02757    -0.05411    -0.01106
 PY  C  21  -0.04258    -0.08022     0.08047    -0.04225     0.06074     0.01778
 PZ  C  21   0.15129    -0.06749     0.01130     0.02458     0.00595    -0.00926
  
  S  C  22   0.16470     0.30603    -0.24477    -0.05308     0.05966     0.03346
 PX  C  22   0.00759     0.01729    -0.02557     0.00951    -0.03962    -0.00163
 PY  C  22   0.02083     0.05518    -0.07569     0.14244    -0.13666    -0.05613
 PZ  C  22  -0.10687     0.07895    -0.03133    -0.02495    -0.00155     0.00944
  
  S  C  23  -0.11854    -0.25563     0.23260    -0.20208     0.13612     0.06934
 PX  C  23  -0.01894    -0.08479     0.06318     0.09783    -0.10432    -0.03944
 PY  C  23   0.04251     0.06858    -0.05290    -0.04146     0.03311     0.02206
 PZ  C  23   0.13778    -0.02786    -0.01399     0.03711     0.00031    -0.01174
  
  S  C  24   0.03842    -0.00130    -0.00090     0.29192    -0.29787    -0.10775
 PX  C  24   0.03775     0.13087    -0.11742     0.01287    -0.01321    -0.00710
 PY  C  24   0.02026     0.06391    -0.06671    -0.00469    -0.03815    -0.01138
 PZ  C  24  -0.17392     0.05866     0.00043    -0.04293     0.00278     0.01549
  
  S  H  25   0.03695     0.04683     0.02066    -0.16574     0.27698     0.07842
  
  S  H  26  -0.11797    -0.20748     0.17178     0.03145     0.00773    -0.01961
  
  S  H  27   0.06211     0.15263    -0.13825     0.12806    -0.05507    -0.04429
  
  S  H  28  -0.02974    -0.00168    -0.00316    -0.16366     0.23872     0.06810
  
  S  C  29  -0.03861    -0.20086     0.25530    -0.18779    -0.01885     0.05383
 PX  C  29   0.03103     0.09815    -0.04402    -0.10827     0.17114     0.05190
 PY  C  29  -0.00250    -0.04524     0.06650     0.10389     0.09093    -0.03226
 PZ  C  29  -0.26513     0.11102    -0.02160    -0.01006    -0.02358     0.00898
  
  S  C  30   0.05235     0.22905    -0.22515    -0.16001     0.01551     0.05205
 PX  C  30  -0.02268    -0.00186    -0.05093     0.03075     0.17615    -0.00594
 PY  C  30  -0.02772    -0.06998     0.09106    -0.16165     0.07758     0.06073
 PZ  C  30   0.27487    -0.12146     0.02196     0.03319     0.02235    -0.01745




    ROOT NO.   61          62          63          64          65          66

             5.23741     5.37728     5.53563     5.81134     6.20647     6.46941
  
  
  S  C   1   0.11083    -0.26904    -0.02916     0.07287    -0.05966     0.03098
 PX  C   1  -0.12477     0.08876     0.08479    -0.15052     0.10951    -0.03080
 PY  C   1  -0.03389     0.28774    -0.02596    -0.00478     0.02886    -0.02718
 PZ  C   1  -0.01205     0.03437     0.00333    -0.01018     0.00870    -0.00322
  
  S  C   2   0.17705    -0.09557    -0.11280     0.18358    -0.11958     0.03050
 PX  C   2   0.09715    -0.17823    -0.03368     0.06941    -0.05762     0.03387
 PY  C   2  -0.05842     0.07517     0.05717    -0.14688     0.15521    -0.04339
 PZ  C   2  -0.01328    -0.00596     0.01219    -0.01942     0.01363    -0.00322
  
  S  C   3  -0.04836     0.02942    -0.01850     0.08614    -0.12600     0.04105
 PX  C   3   0.15721     0.03532    -0.09585     0.05822     0.09396    -0.09619
 PY  C   3   0.04031    -0.06293    -0.04074     0.12767    -0.17707     0.10809
 PZ  C   3   0.00269     0.00505    -0.01056     0.02238    -0.01963     0.00274
  
  S  C   4   0.05656     0.04150    -0.00487    -0.08823     0.19381    -0.14159
 PX  C   4  -0.09069    -0.03870     0.08482    -0.12297     0.08229    -0.02886
 PY  C   4  -0.10148     0.05027     0.02291     0.02934    -0.13751     0.08475
 PZ  C   4  -0.01117    -0.00544     0.00893    -0.01294     0.00460     0.00078
  
  S  C   5  -0.11358    -0.10920     0.11860    -0.17082     0.12698    -0.05150
 PX  C   5  -0.02235    -0.05448    -0.00554     0.07486    -0.16404     0.13082
 PY  C   5  -0.04630    -0.21026     0.09516    -0.14782     0.15509    -0.08787
 PZ  C   5   0.00639     0.00086    -0.00610     0.01120    -0.01112     0.00614
  
  S  C   6  -0.04109    -0.29935     0.08435    -0.08245     0.03145     0.00598
 PX  C   6   0.01478     0.31005    -0.08123     0.09484    -0.06007     0.00844
 PY  C   6   0.09371    -0.07243    -0.06575     0.11790    -0.09768     0.04363
 PZ  C   6  -0.00081    -0.00526     0.00012     0.00232    -0.00402     0.00220
  
  S  C   7  -0.22321    -0.06533     0.12924    -0.06616    -0.11473     0.10971
 PX  C   7  -0.05748    -0.03957     0.00249     0.05503    -0.09776     0.03595
 PY  C   7   0.04930     0.00799    -0.07206     0.07212     0.08865    -0.14510
 PZ  C   7   0.02602     0.00604    -0.01589     0.01031     0.01262    -0.01434
  
  S  C   8   0.19068    -0.03771    -0.08217     0.04851     0.09095    -0.08155
 PX  C   8  -0.03878     0.00357     0.04454    -0.10349    -0.05083     0.16583
 PY  C   8   0.11554    -0.03488    -0.04561    -0.00094     0.22522    -0.26892
 PZ  C   8   0.01546     0.00021    -0.00492     0.00045     0.02322    -0.03077
  
  S  C   9   0.01089     0.01351    -0.04666     0.13853     0.04173    -0.19425
 PX  C   9   0.14201    -0.01370    -0.06714     0.03439     0.07679    -0.07019
 PY  C   9   0.09947     0.03314     0.03717    -0.12107     0.00165     0.17348
 PZ  C   9  -0.00566    -0.00077     0.00286    -0.00176    -0.00391     0.00823
  
  S  C  10   0.02892     0.03966     0.06480    -0.11735    -0.01527     0.12009
 PX  C  10  -0.15725    -0.02438     0.05274     0.08648    -0.06688    -0.10100
[...]
  S   H   18   -0.0704    0.0113   -0.0486   -0.0370   -0.0174    0.2937   -0.0009    0.0224
  S   H   19   -0.2119    0.2783    0.2104    0.0701   -0.0939    0.0448   -0.0072    0.1817
  S   H   20    0.0786    0.2841    0.1869   -0.2385   -0.0722   -0.0135    0.0321   -0.1987
  S   C   21    0.1144    0.0582   -0.0081    0.0007    0.0096    0.0017    0.0964    0.0524
  Px  C   21    0.1452    0.1261   -0.1375    0.2649   -0.1678   -0.0019   -0.0852   -0.0062
  Py  C   21   -0.1191   -0.0942    0.0592   -0.1017    0.0479    0.0055    0.3802    0.1917
  Pz  C   21   -0.0086   -0.0091    0.0082   -0.0179    0.0137    0.0003    0.0137    0.0047
  S   C   22    0.0200    0.0112    0.0251   -0.0462    0.0297   -0.0014   -0.1326   -0.0558
  Px  C   22    0.0162    0.0130    0.0420   -0.0752    0.0343    0.0066    0.5025    0.1680
  Py  C   22    0.1182    0.0588   -0.0182    0.0353   -0.0257    0.0013    0.0293    0.0756
  Pz  C   22    0.0011    0.0010    0.0006   -0.0002   -0.0008   -0.0001   -0.0147   -0.0022
  S   C   23   -0.1111   -0.0474    0.0295   -0.0526    0.0302    0.0004    0.0536   -0.0320
  Px  C   23   -0.1452   -0.0755   -0.0137    0.0298   -0.0299   -0.0025   -0.1691    0.1531
  Py  C   23   -0.0548   -0.0252    0.0360   -0.0680    0.0384   -0.0038   -0.4026    0.0477
  Pz  C   23    0.0223    0.0104   -0.0010    0.0009    0.0010    0.0002    0.0136   -0.0138
  S   C   24   -0.1748   -0.0967   -0.0269    0.0433   -0.0188   -0.0003   -0.0554    0.0719
  Px  C   24    0.0980    0.0520   -0.0219    0.0449   -0.0389   -0.0016   -0.1369    0.1588
  Py  C   24   -0.1753   -0.1405   -0.1243    0.2767   -0.1822   -0.0022    0.2051   -0.2441
  Pz  C   24   -0.0059   -0.0040   -0.0015    0.0044   -0.0029    0.0001    0.0104   -0.0134
  S   H   25   -0.1880   -0.1357    0.1010   -0.1809    0.0998    0.0034    0.2196    0.0952
  S   H   26   -0.0189   -0.0173   -0.0342    0.0589   -0.0263   -0.0039   -0.2934   -0.0960
  S   H   27    0.1662    0.0785   -0.0269    0.0443   -0.0171    0.0032    0.2845   -0.0724
  S   H   28    0.2534    0.1627    0.0948   -0.2031    0.1257    0.0010   -0.1541    0.1807
  S   C   29    0.1622    0.1532   -0.1007    0.2079   -0.1640   -0.0015    0.0388    0.0283
  Px  C   29   -0.0956   -0.0502   -0.0199    0.0877   -0.0944   -0.0016   -0.1366   -0.0399
  Py  C   29    0.1166    0.1343    0.0172   -0.1090    0.1294   -0.0026   -0.0642   -0.0143
  Pz  C   29   -0.0007    0.0009    0.0091   -0.0155    0.0053    0.0000    0.0061    0.0007
  S   C   30   -0.1234   -0.1095   -0.0882    0.2287   -0.1853   -0.0005    0.0093    0.0084
  Px  C   30   -0.0439   -0.0982    0.0367   -0.0647    0.0644    0.0001    0.0621   -0.2315
  Py  C   30    0.1796    0.1589   -0.0242    0.0782   -0.1087   -0.0043    0.0922   -0.0780
  Pz  C   30    0.0096    0.0060    0.0006   -0.0061    0.0095    0.0000    0.0035   -0.0046


   Root No.      73        74        75        76        77        78        79        80

                73 ????   74 ????   21 b      22 b      24 a      23 b      24 b      25 a   

                 9.454     9.505    10.165    10.722    11.050    11.566    11.746    12.163
  
  S   C    1   -0.0043    0.0728   -0.0266   -0.0738    0.0435    0.0246    0.0101    0.0100
  Px  C    1    0.0710    0.2313    0.1162   -0.2076   -0.1426   -0.1563    0.0532   -0.1391
  Py  C    1   -0.0924    0.0864   -0.1849   -0.0609    0.2245    0.1740   -0.0133    0.1280
  Pz  C    1    0.0032    0.0236    0.0044   -0.0201   -0.0050   -0.0080    0.0060   -0.0100
  S   C    2   -0.0584   -0.0880   -0.0790    0.0310    0.0856    0.0622    0.0225    0.0064
  Px  C    2    0.0525    0.2291    0.0617   -0.2398   -0.0528   -0.0912    0.0885   -0.1422
  Py  C    2   -0.1951   -0.2003   -0.1937   -0.0512    0.1859    0.0989    0.1224   -0.0755
  Pz  C    2    0.0093    0.0159    0.0101   -0.0101   -0.0091   -0.0080    0.0012   -0.0055
  S   C    3    0.0068   -0.0403   -0.0126    0.0676    0.0222    0.0251   -0.0009    0.0063
  Px  C    3   -0.2369   -0.1459   -0.2331   -0.0776    0.0199   -0.0889   -0.2070    0.1660
  Py  C    3   -0.0724   -0.0304   -0.0969   -0.1023    0.2319    0.1579    0.3344   -0.2666
  Pz  C    3   -0.0148   -0.0153   -0.0171    0.0022    0.0060    0.0004   -0.0149    0.0124
  S   C    4   -0.0232   -0.0391   -0.0108    0.0623   -0.0407   -0.0346   -0.0065   -0.0151
  Px  C    4    0.0676   -0.1479    0.2355   -0.0878   -0.2032   -0.0790   -0.1450    0.2119
  Py  C    4    0.0715   -0.1232    0.1157    0.0287    0.1039    0.1585    0.3622   -0.2541
  Pz  C    4    0.0059   -0.0152    0.0191   -0.0023   -0.0059    0.0029    0.0194   -0.0091
  S   C    5   -0.0145   -0.0957    0.0509    0.0399   -0.0940   -0.0690   -0.0205   -0.0119
  Px  C    5    0.0669   -0.0615    0.1740   -0.1461   -0.1062   -0.0177   -0.1376    0.2403
  Py  C    5    0.0872    0.3109   -0.0489   -0.1771    0.1765    0.1513    0.0006    0.1317
  Pz  C    5    0.0074    0.0121    0.0049   -0.0143    0.0046    0.0074   -0.0063    0.0175
  S   C    6    0.0591    0.0732    0.0665   -0.0715   -0.0344   -0.0174   -0.0083    0.0223
  Px  C    6    0.1842    0.2034    0.1755   -0.1596   -0.0784   -0.0356   -0.0149    0.0415
  Py  C    6   -0.0121    0.1320   -0.1277   -0.1341    0.2616    0.2398   -0.0473    0.2439
  Pz  C    6    0.0143    0.0196    0.0110   -0.0167    0.0003    0.0035   -0.0033    0.0109
  S   C    7    0.1007    0.0297    0.0508    0.0813    0.0308    0.0652    0.0180   -0.0192
  Px  C    7   -0.1469   -0.1423   -0.1675    0.0201    0.0333   -0.0197   -0.2156    0.1739
  Py  C    7    0.3550    0.0560    0.0590    0.2621    0.1099    0.1800   -0.0725    0.0177
  Pz  C    7   -0.0340   -0.0166   -0.0227   -0.0141   -0.0038   -0.0147   -0.0170    0.0145
  S   C    8   -0.0575    0.0504   -0.0803    0.0705   -0.0437   -0.0776   -0.0280   -0.0050
  Px  C    8   -0.0844   -0.0376   -0.0240    0.1985   -0.1439   -0.1446    0.1628   -0.1005
  Py  C    8    0.1015   -0.1667    0.1796   -0.0711    0.0169    0.0991    0.1408   -0.0715
  Pz  C    8    0.0133   -0.0219    0.0242   -0.0092    0.0039    0.0151    0.0177   -0.0072
  S   C    9   -0.0104    0.0425   -0.0345   -0.0109    0.0047   -0.0178   -0.0270   -0.0082
  Px  C    9   -0.1448    0.0066   -0.0822    0.2280   -0.1930   -0.2039    0.1191   -0.0986
  Py  C    9   -0.0862    0.0240    0.1312    0.1391   -0.1151    0.3700   -0.2331   -0.0438
  Pz  C    9   -0.0009   -0.0008    0.0016   -0.0016   -0.0003    0.0065   -0.0059    0.0030
  S   C   10   -0.0097    0.0276    0.0389    0.0013    0.0002    0.0271    0.0106   -0.0081
  Px  C   10    0.2891    0.0567   -0.1459    0.2677    0.1696   -0.2068    0.0915    0.0664
  Py  C   10    0.1638   -0.0419    0.0955    0.1617    0.0756    0.3707   -0.2389    0.0604
  Pz  C   10    0.0012    0.0023    0.0030   -0.0003    0.0012    0.0013    0.0044   -0.0020
  S   C   11   -0.1042    0.0137    0.0969   -0.0581   -0.0248    0.0640    0.0339    0.0146
  Px  C   11    0.1972    0.0701   -0.0752    0.2309    0.1249   -0.1534    0.1293    0.0769
  Py  C   11   -0.2867    0.0842    0.2394   -0.0571   -0.0001    0.0871    0.1385    0.1000
  Pz  C   11    0.0097    0.0022   -0.0054    0.0076    0.0049   -0.0066    0.0006    0.0008
  S   H   12   -0.2010    0.0196    0.1387   -0.0839   -0.0411    0.0946    0.0326    0.0335
  S   C   13    0.0366    0.0360   -0.0684   -0.0911    0.0528   -0.0757   -0.0223   -0.0200
  Px  C   13   -0.0230    0.1596   -0.1373   -0.0248   -0.0301   -0.0138   -0.2097   -0.1779
  Py  C   13   -0.1173   -0.0329    0.0974    0.2325   -0.1470    0.1777   -0.0696   -0.0240
  Pz  C   13    0.0037    0.0073   -0.0092   -0.0069    0.0038   -0.0064   -0.0060   -0.0057
  S   H   14    0.2351    0.0671    0.0804    0.1221    0.0529    0.1107    0.0246   -0.0404
  S   H   15   -0.0268    0.1152   -0.0558   -0.0944    0.0659    0.0366    0.0125    0.0168
  S   H   16   -0.1182   -0.1620   -0.1183    0.0306    0.1153    0.0794    0.0463   -0.0065
  S   H   17   -0.0249   -0.1743    0.0730    0.0480   -0.1205   -0.0847   -0.0416   -0.0004
  S   H   18    0.1101    0.1170    0.1061   -0.0912   -0.0510   -0.0256   -0.0101    0.0202
  S   H   19   -0.0732    0.0686   -0.0932    0.0772   -0.0495   -0.0972   -0.0255    0.0139
  S   H   20    0.0554    0.0593   -0.0879   -0.1121    0.0671   -0.1013   -0.0227   -0.0398
  S   C   21    0.0520   -0.0648   -0.0612   -0.0427   -0.0888    0.0559    0.0216   -0.0022
  Px  C   21   -0.1109    0.0004    0.1846   -0.1314    0.1549   -0.0253   -0.1354   -0.2339
  Py  C   21    0.1307   -0.2302   -0.0676   -0.1810   -0.1340    0.1183   -0.0037   -0.1225
  Pz  C   21    0.0113   -0.0053   -0.0155    0.0045   -0.0149    0.0048    0.0096    0.0136
  S   C   22    0.0030    0.0594   -0.0612    0.0484   -0.0594    0.0286    0.0096    0.0108
  Px  C   22   -0.0341   -0.1546    0.1787   -0.0929    0.1531   -0.0737   -0.0198   -0.0093
  Py  C   22    0.0963   -0.1204   -0.1424   -0.1848   -0.2537    0.2215   -0.0402   -0.2386
  Pz  C   22    0.0050    0.0001   -0.0113   -0.0032   -0.0142    0.0102   -0.0009   -0.0079
  S   C   23   -0.0554    0.0596    0.0462    0.0766    0.0384   -0.0194   -0.0078    0.0033
  Px  C   23    0.1498   -0.2311    0.0477   -0.1708    0.1881   -0.1761    0.0417    0.1747
  Py  C   23    0.1893   -0.1226   -0.2242   -0.1457   -0.2407    0.1633   -0.0048   -0.1198
  Pz  C   23   -0.0119    0.0196   -0.0058    0.0125   -0.0171    0.0153   -0.0036   -0.0152
  S   C   24    0.0393   -0.0843    0.0508   -0.0152    0.0828   -0.0515   -0.0200    0.0034
  Px  C   24    0.1584   -0.2393    0.0007   -0.2163    0.1059   -0.1212    0.0651    0.1746
  Py  C   24   -0.0537    0.2034   -0.1724   -0.0899   -0.1713    0.0641    0.1147    0.1113
  Pz  C   24   -0.0087    0.0167   -0.0061    0.0078   -0.0123    0.0091    0.0008   -0.0044
  S   H   25    0.0962   -0.1105   -0.0877   -0.0462   -0.1141    0.0681    0.0424    0.0126
  S   H   26    0.0249    0.0867   -0.1087    0.0492   -0.0952    0.0478    0.0127    0.0012
  S   H   27   -0.1524    0.1392    0.1074    0.1292    0.0720   -0.0342   -0.0118    0.0101
  S   H   28    0.0723   -0.1784    0.0964   -0.0124    0.1295   -0.0756   -0.0468   -0.0110
  S   C   29    0.0084   -0.0466    0.0029   -0.0639   -0.0269    0.0243    0.0035   -0.0116
  Px  C   29   -0.1624    0.0519    0.2462   -0.0706    0.2348   -0.0699   -0.1554   -0.2259
  Py  C   29   -0.1477    0.0794    0.1575    0.0519   -0.0873    0.1182    0.3297    0.2787
  Pz  C   29    0.0068   -0.0012   -0.0124    0.0064   -0.0149    0.0062    0.0131    0.0175
  S   C   30    0.0356   -0.0443   -0.0071   -0.0638    0.0310   -0.0269    0.0028    0.0145
  Px  C   30    0.0203    0.1752   -0.2203   -0.1163    0.0054   -0.0924   -0.2146   -0.1760
  Py  C   30   -0.0021    0.0378   -0.1011   -0.1066   -0.2105    0.1037    0.3034    0.3097
  Pz  C   30   -0.0008    0.0047   -0.0052   -0.0020   -0.0059    0.0023    0.0031    0.0036


   Root No.      81        82        83        84

                81 ????   82 ????   26 a      25 b   

                12.671    12.739    13.161    14.555
  
  S   C    1    0.0449   -0.0532    0.0144    0.0400
  Px  C    1    0.3079   -0.0350    0.1961    0.0938
  Py  C    1   -0.1096   -0.1114   -0.1071    0.0306
  Pz  C    1    0.0235   -0.0053    0.0134    0.0080
  S   C    2   -0.0050   -0.0229   -0.0111    0.0277
  Px  C    2    0.3479   -0.0838    0.2039    0.1417
  Py  C    2    0.1678   -0.0987    0.0646    0.1227
  Pz  C    2    0.0131   -0.0015    0.0084    0.0040
  S   C    3   -0.0189    0.0107    0.0019    0.0179
  Px  C    3    0.2180   -0.1426    0.2633    0.2010
  Py  C    3    0.2338   -0.0695    0.0227    0.1161
  Pz  C    3    0.0145   -0.0086    0.0189    0.0162
  S   C    4   -0.0049    0.0123   -0.0085    0.0252
  Px  C    4   -0.0410   -0.2868   -0.1262    0.2152
  Py  C    4    0.0814   -0.1216   -0.1829    0.1558
  Pz  C    4    0.0036   -0.0228   -0.0198    0.0219
  S   C    5    0.0235    0.0055    0.0193    0.0219
  Px  C    5   -0.0580   -0.2990   -0.1274    0.1818
  Py  C    5   -0.0824   -0.1689   -0.1216    0.0599
  Pz  C    5   -0.0076   -0.0212   -0.0122    0.0106
  S   C    6    0.0249   -0.0616   -0.0069    0.0409
  Px  C    6    0.0548   -0.1209   -0.0097    0.0786
  Py  C    6   -0.1901   -0.2371   -0.2077    0.0774
  Pz  C    6   -0.0015   -0.0165   -0.0069    0.0082
  S   C    7   -0.0324    0.0481   -0.0069    0.0079
  Px  C    7    0.1850   -0.1028    0.2651    0.2214
  Py  C    7    0.0656    0.0634    0.1270    0.1382
  Pz  C    7    0.0161   -0.0145    0.0174    0.0124
  S   C    8   -0.0356    0.0456    0.0001    0.0133
  Px  C    8   -0.0581   -0.1721   -0.2245    0.2929
  Py  C    8    0.0621   -0.1595   -0.1283    0.1390
  Pz  C    8    0.0076   -0.0201   -0.0141    0.0151
  S   C    9   -0.0149    0.0631    0.0019   -0.0036
  Px  C    9   -0.0843   -0.0989   -0.2197    0.2919
  Py  C    9    0.1723    0.1735   -0.1048    0.1694
  Pz  C    9    0.0040    0.0022    0.0028   -0.0011
  S   C   10   -0.0423    0.0422   -0.0021   -0.0018
  Px  C   10   -0.1259   -0.0704    0.2351    0.2338
  Py  C   10    0.2050    0.1027    0.1421    0.1381
  Pz  C   10   -0.0032    0.0015   -0.0003    0.0014
  S   C   11   -0.0429    0.0564    0.0206    0.0017
  Px  C   11   -0.1812   -0.0156    0.2404    0.2271
  Py  C   11   -0.1610    0.1283    0.1725    0.1228
  Pz  C   11   -0.0019   -0.0016    0.0031    0.0037
  S   H   12   -0.0162    0.0603    0.0168   -0.0028
  S   C   13   -0.0314    0.0425   -0.0033   -0.0139
  Px  C   13    0.0074    0.2085   -0.2213    0.2708
  Py  C   13    0.0889    0.0533   -0.1072    0.1728
  Pz  C   13   -0.0019    0.0065   -0.0049    0.0047
  S   H   14   -0.0037    0.0537   -0.0068    0.0102
  S   H   15    0.0389   -0.0615    0.0060    0.0385
  S   H   16   -0.0039   -0.0267   -0.0217    0.0213
  S   H   17    0.0241    0.0107    0.0302    0.0110
  S   H   18    0.0345   -0.0616    0.0006    0.0388
  S   H   19   -0.0446    0.0186    0.0029    0.0091
  S   H   20   -0.0401    0.0153   -0.0080   -0.0115
  S   C   21   -0.0063   -0.0179    0.0086   -0.0262
  Px  C   21   -0.2931    0.0618    0.1544    0.1691
  Py  C   21   -0.1955   -0.0059    0.1306    0.0537
  Pz  C   21    0.0160   -0.0042   -0.0080   -0.0107
  S   C   22    0.0390   -0.0447   -0.0127   -0.0374
  Px  C   22   -0.0609    0.0955    0.0119    0.0703
  Py  C   22   -0.2991   -0.0750    0.2089    0.0594
  Pz  C   22   -0.0073   -0.0065    0.0062   -0.0013
  S   C   23    0.0333   -0.0583    0.0002   -0.0416
  Px  C   23    0.0981    0.2949   -0.1567    0.1141
  Py  C   23   -0.1512   -0.0307    0.0983    0.0307
  Pz  C   23   -0.0096   -0.0230    0.0132   -0.0079
  S   C   24    0.0232   -0.0089   -0.0129   -0.0294
  Px  C   24    0.0592    0.3439   -0.1465    0.1634
  Py  C   24   -0.0308    0.2145   -0.0330    0.1427
  Pz  C   24   -0.0033   -0.0087    0.0051   -0.0022
  S   H   25   -0.0119   -0.0170    0.0211   -0.0172
  S   H   26    0.0252   -0.0537    0.0002   -0.0344
  S   H   27    0.0496   -0.0659   -0.0077   -0.0435
  S   H   28    0.0327   -0.0075   -0.0287   -0.0198
  S   C   29   -0.0106    0.0108   -0.0089   -0.0199
  Px  C   29   -0.2755    0.0610    0.1531    0.1914
  Py  C   29   -0.1384    0.1304    0.2331    0.1307
  Pz  C   29    0.0157   -0.0026   -0.0058   -0.0087
  S   C   30   -0.0022    0.0212    0.0036   -0.0219
  Px  C   30   -0.0159    0.2427   -0.2194    0.2451
  Py  C   30   -0.0027    0.2558    0.0205    0.1246
  Pz  C   30   -0.0002    0.0095   -0.0034    0.0078


              NET ATOMIC CHARGES AND DIPOLE CONTRIBUTIONS

  ATOM NO.   TYPE          CHARGE      No. of ELECS.   s-Pop       p-Pop       
    1          C          -0.028246        4.0282     1.09975     2.92850
    2          C          -0.025303        4.0253     1.08950     2.93581
    3          C           0.014596        3.9854     1.06801     2.91739
    4          C           0.008400        3.9916     1.06969     2.92191
    5          C          -0.024639        4.0246     1.09286     2.93178
    6          C          -0.022268        4.0223     1.09318     2.92909
    7          C          -0.044145        4.0441     1.10424     2.93991
    8          C          -0.028914        4.0289     1.10002     2.92889
    9          C           0.019777        3.9802     1.05541     2.92481
   10          C           0.001292        3.9987     1.08829     2.91042
   11          C          -0.038022        4.0380     1.10241     2.93561
   12          H           0.028924        0.9711     0.97108
   13          C          -0.031264        4.0313     1.09388     2.93739
   14          H           0.028820        0.9712     0.97118
   15          H           0.024328        0.9757     0.97567
   16          H           0.022116        0.9779     0.97788
   17          H           0.023523        0.9765     0.97648
   18          H           0.021974        0.9780     0.97803
   19          H           0.014669        0.9853     0.98533
   20          H           0.024077        0.9759     0.97592
   21          C          -0.035354        4.0354     1.10790     2.92745
   22          C          -0.030035        4.0300     1.10505     2.92499
   23          C          -0.028975        4.0290     1.08586     2.94312
   24          C          -0.027318        4.0273     1.08379     2.94353
   25          H           0.019836        0.9802     0.98016
   26          H           0.023147        0.9769     0.97685
   27          H           0.034789        0.9652     0.96521
   28          H           0.022114        0.9779     0.97789
   29          C           0.017613        3.9824     1.06194     2.92044
   30          C           0.014487        3.9855     1.06038     2.92513
 DIPOLE           X         Y         Z       TOTAL
 POINT-CHG.    -0.062     0.120    -0.027     0.138
 HYBRID        -0.010    -0.046    -0.189     0.195
 SUM           -0.073     0.074    -0.216     0.240


          ATOMIC ORBITAL ELECTRON POPULATIONS

     Atom    s        px        py        pz   
    1  C   1.09975   0.98495   0.94873   0.99482
    2  C   1.08950   0.97944   0.95072   1.00564
    3  C   1.06801   0.97235   0.97060   0.97444
    4  C   1.06969   0.96554   0.97320   0.98317
    5  C   1.09286   0.97222   0.95471   1.00484
    6  C   1.09318   0.94191   0.98910   0.99808
    7  C   1.10424   0.97013   0.95241   1.01737
    8  C   1.10002   0.96413   0.95218   1.01258
    9  C   1.05541   0.97319   0.96812   0.98350
   10  C   1.08829   0.96131   0.96694   0.98217
   11  C   1.10241   0.95906   0.95632   1.02023
   12  H   0.97108
   13  C   1.09388   0.97134   0.95132   1.01473
   14  H   0.97118
   15  H   0.97567
   16  H   0.97788
   17  H   0.97648
   18  H   0.97803
   19  H   0.98533
   20  H   0.97592
   21  C   1.10790   0.96690   0.95365   1.00690
   22  C   1.10505   0.93893   0.98797   0.99809
   23  C   1.08586   0.98918   0.95505   0.99889
   24  C   1.08379   0.97757   0.96018   1.00578
   25  H   0.98016
   26  H   0.97685
   27  H   0.96521
   28  H   0.97789
   29  C   1.06194   0.97019   0.97230   0.97795
   30  C   1.06038   0.97296   0.96997   0.98220

 **********************
 *                    *
 * JOB ENDED NORMALLY *
 *                    *
 **********************



 TOTAL JOB TIME:             2.23 SECONDS

 == MOPAC DONE ==


          MOPAC Job: "./tetraceneTraj/tetracene_1723.mop" ended normally on Feb 15, 2023, at 11:36.

rm: cannot remove ./tetraceneTraj/tetracene_1723.cim: No such file or directory
rm: cannot remove ./tetraceneTraj/tetracene_1723.end: No such file or directory
rm: cannot remove ./tetraceneTraj/tetracene_1723.log: No such file or directory
rm: cannot remove ./tetraceneTraj/tetracene_1723.temp: No such file or directory
rm: cannot remove ./tetraceneTraj/tetracene_1723.ple: No such file or directory
rm: cannot remove ./tetraceneTraj/tetracene_1723.sts: No such file or directory
