 *******************************************************************************
 ** Site#:    0         For non-commercial use only    Version 20.173L 64BITS **
 *******************************************************************************
 ** Cite this program as: MOPAC2016, Version: 20.173L, James J. P. Stewart,   **
 ** Stewart Computational Chemistry, web-site: HTTP://OpenMOPAC.net.          **
 *******************************************************************************
 **                                                                           **
 **                                MOPAC2016                                  **
 **                                                                           **
 *******************************************************************************

                              INDO CALCULATION RESULTS

 *******************************************************************************
 *  CALCULATION DONE:                                Wed Feb 15 11:22:44 2023  *
 *  INDO       - The INDO Hamiltonian to be used
 *
 *
 *
 *                 CHARGE ON SYSTEM = 0
 *
 *
 *
 *  C.I.=(N,M) - 3 DOUBLY FILLED LEVELS USED IN A C.I. INVOLVING 6 M.O.'S
 *  T=         - A TIME OF 172800.0 SECONDS REQUESTED
 *  DUMP=N     - RESTART FILE WRITTEN EVERY 7200.0 SECONDS REQUESTED
 *  RELSCF     - DEFAULT SCF CRITERION MULTIPLIED BY 0.0000
 *              (DEFAULT SCF CRITERION = 0.00010)
 *  ALLVEC     - PRINT ALL EIGENVECTORS
 **********
 *  WARNING: Specified print options may not behave as expected with INDO
 **********
 *******************************************************************************
INDO C.I.=(6,3) AllVEC CHARGE=0 RELSCF=0.000001


   ATOM   CHEMICAL          X               Y               Z
  NUMBER   SYMBOL      (ANGSTROMS)     (ANGSTROMS)     (ANGSTROMS)
 
     1       C         18.57556003  *  19.46982945  *  22.39831662  *
     2       C         19.94237440  *  19.40752359  *  22.45429580  *
     3       C         20.74619333  *  20.66598640  *  22.48419627  *
     4       C         19.96898076  *  21.96003569  *  22.48450210  *
     5       C         18.50410603  *  21.94114769  *  22.45224213  *
     6       C         17.85562804  *  20.73047838  *  22.40711954  *
     7       C         22.12604810  *  20.64162976  *  22.45091966  *
     8       C         20.69121405  *  23.17581104  *  22.48780962  *
     9       C         22.14570270  *  23.14635755  *  22.49031474  *
    10       C         22.85009317  *  21.89130341  *  22.44687654  *
    11       C         24.24800372  *  21.87645923  *  22.51432714  *
    12       H         24.82934655  *  20.89214036  *  22.57267572  *
    13       C         22.88893567  *  24.31566566  *  22.53229886  *
    14       H         22.77486617  *  19.72991561  *  22.41298114  *
    15       H         17.96357820  *  18.56368627  *  22.26152006  *
    16       H         20.54021129  *  18.50129997  *  22.51700426  *
    17       H         17.94073850  *  22.89015904  *  22.40864616  *
    18       H         16.75246535  *  20.70060826  *  22.41520540  *
    19       H         20.21406030  *  24.14714694  *  22.43808367  *
    20       H         22.32932954  *  25.28035266  *  22.61550567  *
    21       C         26.48450430  *  23.06257101  *  22.54063705  *
    22       C         27.16577422  *  24.27444066  *  22.57418089  *
    23       C         26.44158167  *  25.49583849  *  22.63342904  *
    24       C         25.05096843  *  25.56422483  *  22.61399517  *
    25       H         27.03451702  *  22.11550827  *  22.37957567  *
    26       H         28.28464298  *  24.29967172  *  22.51767429  *
    27       H         27.01387773  *  26.45115033  *  22.61756445  *
    28       H         24.50108654  *  26.50559718  *  22.63544470  *
    29       C         24.99893834  *  23.04475819  *  22.51241830  *
    30       C         24.30038187  *  24.32945169  *  22.53959772  *
 


          CARTESIAN COORDINATES 

    NO.       ATOM           X           Y           Z

     1         C         18.5756     19.4698     22.3983
     2         C         19.9424     19.4075     22.4543
     3         C         20.7462     20.6660     22.4842
     4         C         19.9690     21.9600     22.4845
     5         C         18.5041     21.9411     22.4522
     6         C         17.8556     20.7305     22.4071
     7         C         22.1260     20.6416     22.4509
     8         C         20.6912     23.1758     22.4878
     9         C         22.1457     23.1464     22.4903
    10         C         22.8501     21.8913     22.4469
    11         C         24.2480     21.8765     22.5143
    12         H         24.8293     20.8921     22.5727
    13         C         22.8889     24.3157     22.5323
    14         H         22.7749     19.7299     22.4130
    15         H         17.9636     18.5637     22.2615
    16         H         20.5402     18.5013     22.5170
    17         H         17.9407     22.8902     22.4086
    18         H         16.7525     20.7006     22.4152
    19         H         20.2141     24.1471     22.4381
    20         H         22.3293     25.2804     22.6155
    21         C         26.4845     23.0626     22.5406
    22         C         27.1658     24.2744     22.5742
    23         C         26.4416     25.4958     22.6334
    24         C         25.0510     25.5642     22.6140
    25         H         27.0345     22.1155     22.3796
    26         H         28.2846     24.2997     22.5177
    27         H         27.0139     26.4512     22.6176
    28         H         24.5011     26.5056     22.6354
    29         C         24.9989     23.0448     22.5124
    30         C         24.3004     24.3295     22.5396

           Empirical Formula: C18 H12  =    30 atoms



      MOLECULAR POINT GROUP   :   D2  


      RHF CALCULATION, NO. OF DOUBLY OCCUPIED LEVELS = 42

 WARNING: INDO only performs single-point calculations
  SCF CRITERION =    0.1000E-09

 Summary of symmetry occupancy in each shell:

 SHELL     
    1   42
    v   42
 TOTAL  84




    ROOT NO.    1           2           3           4           5           6

           -44.93726   -42.83450   -40.55454   -37.08070   -35.84364   -34.06531
  
  
  S  C   1   0.08300     0.23463     0.26493     0.25547    -0.07456     0.13202
 PX  C   1   0.02200     0.05189     0.04213     0.00511    -0.04626     0.09169
 PY  C   1   0.02959     0.07913     0.08193     0.06484     0.01808    -0.04686
 PZ  C   1   0.00107     0.00270     0.00241     0.00068    -0.00074     0.00126
  
  S  C   2   0.10676     0.25108     0.21906     0.10836    -0.17672     0.29587
 PX  C   2  -0.00047    -0.03050    -0.06908    -0.11283    -0.03321     0.03154
 PY  C   2   0.04239     0.08950     0.06277     0.00399    -0.01667     0.01595
 PZ  C   2  -0.00011    -0.00085    -0.00169    -0.00301    -0.00068     0.00074
  
  S  C   3   0.21410     0.32386     0.08768    -0.19014    -0.16718     0.20950
 PX  C   3   0.01802    -0.04688    -0.12696    -0.14323    -0.07633     0.04923
 PY  C   3   0.04917     0.03206    -0.05367    -0.09886     0.09229    -0.13175
 PZ  C   3  -0.00222    -0.00414    -0.00203     0.00121     0.00293    -0.00359
  
  S  C   4   0.20927     0.32341     0.09995    -0.15861     0.18340    -0.20879
 PX  C   4   0.05017     0.00299    -0.11137    -0.16557    -0.02471     0.08310
 PY  C   4  -0.01215    -0.05877    -0.07917    -0.06074     0.11572    -0.11283
 PZ  C   4  -0.00140    -0.00326    -0.00264    -0.00107    -0.00099     0.00207
  
  S  C   5   0.10574     0.25136     0.22501     0.13415     0.16464    -0.28986
 PX  C   5   0.03582     0.06074     0.01889    -0.05098     0.03799    -0.02930
 PY  C   5  -0.02330    -0.07440    -0.09263    -0.09651     0.02669    -0.01685
 PZ  C   5  -0.00040    -0.00147    -0.00216    -0.00300    -0.00043     0.00176
  
  S  C   6   0.08294     0.23543     0.26765     0.26550     0.04835    -0.12635
 PX  C   6   0.03661     0.09462     0.09243     0.05964     0.00300    -0.00432
 PY  C   6   0.00392     0.00540    -0.00266    -0.01965     0.05212    -0.10396
 PZ  C   6   0.00106     0.00288     0.00293     0.00200     0.00110    -0.00250
  
  S  C   7   0.21799     0.17775    -0.11750    -0.25790    -0.30378     0.17300
 PX  C   7  -0.01750    -0.07572    -0.04504     0.07893    -0.02647    -0.08227
 PY  C   7   0.07970     0.03283    -0.07654    -0.07080    -0.00638    -0.04562
 PZ  C   7   0.00184     0.00079    -0.00139    -0.00145    -0.00073     0.00047
  
  S  C   8   0.21162     0.17331    -0.10909    -0.22600     0.32801    -0.18242
 PX  C   8   0.05766    -0.01109    -0.08683    -0.01982     0.02234     0.07532
 PY  C   8  -0.05468    -0.07961     0.00089     0.10013     0.01169     0.04416
 PZ  C   8  -0.00088    -0.00160    -0.00019     0.00161    -0.00152     0.00221
  
  S  C   9   0.34997     0.05198    -0.27068    -0.01844     0.23855     0.00315
 PX  C   9   0.05519    -0.08538    -0.03646     0.18773    -0.08357     0.05741
 PY  C   9  -0.04073    -0.05693     0.03263     0.11103     0.13718     0.04132
 PZ  C   9   0.00045    -0.00185    -0.00000     0.00375     0.00282     0.00204
  
  S  C  10   0.35260     0.05420    -0.27504    -0.03603    -0.22385    -0.01739
 PX  C  10  -0.00679    -0.09351     0.00887     0.19113    -0.08900    -0.06074
 PY  C  10   0.06494    -0.04517    -0.04384     0.11535     0.13858    -0.02735
 PZ  C  10   0.00834    -0.00066    -0.00641     0.00319    -0.00365    -0.00133
  
  S  C  11   0.27465    -0.10019    -0.14304     0.19940    -0.31735    -0.19440
 PX  C  11  -0.05880    -0.03239     0.09391     0.00206     0.01929    -0.07164
 PY  C  11   0.08609    -0.06434    -0.01342     0.10755     0.01488    -0.03700
 PZ  C  11  -0.00197    -0.00032     0.00283    -0.00136     0.00310     0.00019
  
  S  H  12   0.07682    -0.02702    -0.03620     0.04425    -0.15356    -0.09419
  
  S  C  13   0.27758    -0.10386    -0.13919     0.21479     0.30309     0.19533
 PX  C  13   0.04050    -0.07172     0.04125     0.08433    -0.03876     0.07353
 PY  C  13  -0.09460     0.00556     0.08781    -0.05729    -0.00232     0.04821
 PZ  C  13  -0.00123    -0.00094     0.00262    -0.00053     0.00137     0.00368
  
  S  H  14   0.06681     0.04859    -0.03730    -0.06810    -0.15504     0.07559
  
  S  H  15   0.02112     0.06436     0.08019     0.09320    -0.02994     0.05691
  
  S  H  16   0.03452     0.07596     0.05972     0.01783    -0.09182     0.14867
  
  S  H  17   0.03179     0.07269     0.06211     0.03454     0.08340    -0.14084
  
  S  H  18   0.02107     0.06447     0.08083     0.09651     0.02070    -0.05693
  
  S  H  19   0.06634     0.05071    -0.03301    -0.05815     0.16489    -0.08550
  
  S  H  20   0.08135    -0.02859    -0.03747     0.05327     0.15791     0.09615
  
  S  C  21   0.15641    -0.20718     0.22670    -0.11711    -0.15728    -0.28124
 PX  C  21  -0.05275     0.04893    -0.01595    -0.05070     0.03625     0.02758
 PY  C  21   0.03860    -0.06709     0.10042    -0.09026     0.02297     0.01318
 PZ  C  21  -0.00088     0.00075    -0.00002    -0.00129     0.00396     0.00655
  
  S  C  22   0.12555    -0.19951     0.27949    -0.24672    -0.05253    -0.13646
 PX  C  22  -0.05756     0.08344    -0.10094     0.05930     0.00540     0.00857
 PY  C  22  -0.00351     0.00070     0.00829    -0.02332     0.04471     0.08981
 PZ  C  22  -0.00041     0.00050    -0.00038    -0.00023     0.00208     0.00429
  
  S  C  23   0.12987    -0.20540     0.28578    -0.24574     0.05734     0.10002
 PX  C  23  -0.03440     0.04542    -0.04567     0.00600    -0.04304    -0.08993
 PY  C  23  -0.04674     0.06960    -0.08821     0.06124     0.02059     0.05168
 PZ  C  23  -0.00334     0.00520    -0.00699     0.00547    -0.00020     0.00017
  
  S  C  24   0.16466    -0.21673     0.23438    -0.10783     0.16396     0.28420
 PX  C  24   0.00289    -0.02926     0.07573    -0.10496    -0.03767    -0.04494
 PY  C  24  -0.06758     0.07910    -0.06732     0.00232    -0.01634    -0.01901
 PZ  C  24  -0.00298     0.00347    -0.00278    -0.00045    -0.00175    -0.00240
  
  S  H  25   0.04564    -0.05802     0.06038    -0.02880    -0.07904    -0.13606
  
  S  H  26   0.03052    -0.05238     0.08109    -0.08643    -0.02145    -0.05930
  
  S  H  27   0.03249    -0.05542     0.08505    -0.08790     0.02474     0.04657
  
  S  H  28   0.05022    -0.06303     0.06399    -0.02340     0.08524     0.14377
  
  S  C  29   0.30311    -0.25302     0.07842     0.16322    -0.17863    -0.20556
 PX  C  29  -0.06748    -0.00882     0.12672    -0.15447    -0.02086    -0.07677
 PY  C  29   0.02881    -0.06018     0.08883    -0.05286     0.11172     0.11649
 PZ  C  29   0.00264    -0.00353     0.00366    -0.00092     0.00067     0.00073
  
  S  C  30   0.30723    -0.26067     0.08927     0.16444     0.15346     0.21323
 PX  C  30  -0.01091    -0.05578     0.14214    -0.13048    -0.07494    -0.05932
 PY  C  30  -0.06764     0.01842     0.06643    -0.10133     0.09293     0.13683
 PZ  C  30   0.00030    -0.00219     0.00447    -0.00346     0.00340     0.00582




    ROOT NO.    7           8           9          10          11          12

           -31.93827   -31.33920   -28.76275   -28.27548   -27.01247   -26.04163
  
  
  S  C   1  -0.18646     0.23924     0.21984    -0.23843    -0.03326     0.19036
 PX  C   1  -0.10472    -0.09568     0.08866     0.17543     0.04401     0.06521
 PY  C   1   0.06728     0.02665    -0.09533     0.00542    -0.06152    -0.09957
 PZ  C   1  -0.00069    -0.00518    -0.00182     0.01107     0.00074    -0.00397
  
  S  C   2  -0.28404    -0.06803     0.15384     0.14991     0.12489     0.02520
 PX  C   2   0.03813    -0.13261    -0.15091     0.10748     0.06926    -0.19580
 PY  C   2   0.01504    -0.06941    -0.07078     0.08338    -0.07559    -0.08412
 PZ  C   2   0.00106    -0.00576    -0.00509     0.00737     0.00284    -0.00816
  
  S  C   3  -0.06221    -0.24653    -0.13545     0.11751    -0.09329    -0.17866
 PX  C   3   0.06062     0.03943    -0.13010    -0.15853     0.06151    -0.08231
 PY  C   3   0.09144     0.00120     0.03220    -0.09898    -0.18942     0.10716
 PZ  C   3   0.00092     0.00147     0.00263     0.00026    -0.00078     0.00216
  
  S  C   4   0.09216    -0.25239     0.11796     0.12920    -0.09525     0.19281
 PX  C   4  -0.10447    -0.00191     0.05992    -0.15979    -0.12892    -0.05160
 PY  C   4   0.00319     0.01668     0.12595    -0.08090     0.14667     0.10614
 PZ  C   4  -0.00235     0.00055     0.00148    -0.00152    -0.00108    -0.00043
  
  S  C   5   0.28407    -0.02970    -0.17525     0.14740     0.11972    -0.03527
 PX  C   5  -0.02175    -0.13880     0.12992     0.12864    -0.03148     0.19594
 PY  C   5  -0.01603    -0.08174     0.07994     0.04340     0.09192     0.10581
 PZ  C   5  -0.00307    -0.00438     0.00522     0.00348    -0.00167     0.00601
  
  S  C   6   0.15468     0.26587    -0.18545    -0.23704    -0.03095    -0.19631
 PX  C   6  -0.00583    -0.02715     0.03184     0.09345    -0.03213     0.07249
 PY  C   6   0.13552    -0.07515    -0.15025     0.14804     0.06999    -0.11625
 PZ  C   6   0.00339    -0.00126    -0.00427     0.00491     0.00023    -0.00377
  
  S  C   7   0.15846     0.01453    -0.23193    -0.12758     0.16682    -0.02113
 PX  C   7   0.10723     0.15251     0.07023    -0.02473     0.13023     0.20350
 PY  C   7   0.06432     0.08703     0.03284    -0.09188    -0.15035     0.10644
 PZ  C   7  -0.00021    -0.00073     0.00010     0.00057    -0.00309    -0.00193
  
  S  C   8  -0.14593    -0.03420     0.24551    -0.12575     0.17279     0.01538
 PX  C   8  -0.12240     0.14102    -0.05115    -0.09289    -0.05853    -0.19550
 PY  C   8  -0.06895     0.07811    -0.03804     0.02112     0.19236    -0.10951
 PZ  C   8  -0.00050     0.00078    -0.00223     0.00075    -0.00165    -0.00127
  
  S  C   9  -0.21814     0.22744    -0.00278    -0.00965    -0.07367    -0.17496
 PX  C   9   0.06231     0.03555    -0.11147     0.18412    -0.11397     0.06230
 PY  C   9  -0.12556    -0.02632    -0.06900     0.07985     0.23544    -0.10114
 PZ  C   9  -0.00229    -0.00100    -0.00311     0.00305     0.00667    -0.00132
  
  S  C  10   0.18417     0.25531     0.01602    -0.00386    -0.07882     0.17076
 PX  C  10   0.06271    -0.00677     0.10380     0.17208     0.14091     0.06790
 PY  C  10  -0.13537     0.01850     0.05126     0.11483    -0.21668    -0.11169
 PZ  C  10   0.00278     0.00478     0.00272     0.00432    -0.00294     0.00237
  
  S  C  11   0.12909     0.00313     0.23863     0.10682     0.19413    -0.01286
 PX  C  11  -0.11134    -0.17142     0.04920    -0.08407     0.06439    -0.20273
 PY  C  11  -0.06435    -0.08402     0.02811     0.05580    -0.18235    -0.11176
 PZ  C  11  -0.00328    -0.00471     0.00006    -0.00341    -0.00002    -0.00601
  
  S  H  12   0.05808    -0.00689     0.10808    -0.00358     0.21775    -0.00954
  
  S  C  13  -0.14004     0.01346    -0.24543     0.09440     0.18025     0.03026
 PX  C  13   0.13496    -0.13911    -0.05316     0.00106    -0.13109     0.20056
 PY  C  13   0.07661    -0.08728    -0.02760    -0.09983     0.15188     0.11442
 PZ  C  13   0.00317    -0.00414    -0.00282    -0.00386     0.00778     0.00558
  
  S  H  14   0.08181     0.01521    -0.09898    -0.02666     0.21293     0.00871
  
  S  H  15  -0.08918     0.13409     0.12588    -0.17846    -0.00169     0.12412
  
  S  H  16  -0.13279    -0.04144     0.05875     0.06871     0.13124    -0.01125
  
  S  H  17   0.13493    -0.01453    -0.08243     0.05668     0.12238    -0.02313
  
  S  H  18   0.07637     0.14554    -0.10790    -0.17416     0.00214    -0.14133
  
  S  H  19  -0.07571    -0.01308     0.11068    -0.02825     0.21667     0.00027
  
  S  H  20  -0.06649     0.00238    -0.11141    -0.00626     0.21833     0.01405
  
  S  C  21  -0.28511    -0.06886    -0.17923    -0.16675     0.11091     0.04611
 PX  C  21  -0.03341     0.14125    -0.13103     0.11396     0.03795     0.19680
 PY  C  21  -0.02329     0.07935    -0.07713     0.04398    -0.09845     0.10149
 PZ  C  21   0.00602     0.00477     0.00256     0.00630    -0.00807     0.00146
  
  S  C  22  -0.19367     0.25739    -0.20028     0.21958    -0.01014     0.19911
 PX  C  22  -0.00360     0.02218    -0.03101     0.07989     0.04458     0.06719
 PY  C  22   0.11708     0.09736     0.14161     0.15674    -0.05228    -0.12121
 PZ  C  22   0.00572     0.00285     0.00695     0.00497    -0.00352    -0.00652
  
  S  C  23   0.13722     0.27603     0.20508     0.24769    -0.00957    -0.19465
 PX  C  23  -0.11891     0.08645    -0.10437     0.16410    -0.02209     0.07105
 PY  C  23   0.07701    -0.01736     0.10394     0.00985     0.06725    -0.10802
 PZ  C  23   0.00054    -0.00421     0.00081    -0.00295     0.00197    -0.00141
  
  S  C  24   0.29704    -0.02850     0.17464    -0.13176     0.11043    -0.02949
 PX  C  24   0.00950     0.13602     0.14162     0.10771    -0.06126    -0.20022
 PY  C  24   0.00369     0.07987     0.07062     0.08506     0.08933    -0.09142
 PZ  C  24  -0.00076     0.00464     0.00449     0.00485     0.00236    -0.00709
  
  S  H  25  -0.13531    -0.03282    -0.08502    -0.07276     0.12333     0.02937
  
  S  H  26  -0.09362     0.13687    -0.11420     0.15540     0.02029     0.13869
  
  S  H  27   0.06876     0.14933     0.12113     0.17544     0.02250    -0.13168
  
  S  H  28   0.14317    -0.01359     0.07766    -0.05545     0.12710    -0.00092
  
  S  C  29  -0.07644    -0.26980     0.11148    -0.10684    -0.08727    -0.19412
 PX  C  29  -0.10137    -0.01973    -0.05412    -0.17557     0.10652    -0.04625
 PY  C  29   0.01561    -0.02823    -0.12126    -0.07166    -0.17613     0.10708
 PZ  C  29   0.00047    -0.00368     0.00059    -0.00383    -0.00255    -0.00206
  
  S  C  30   0.11239    -0.24060    -0.11553    -0.11014    -0.10314     0.17618
 PX  C  30   0.04890    -0.03761     0.13536    -0.14301    -0.08066    -0.09348
 PY  C  30   0.10549     0.01913    -0.01469    -0.10575     0.17865     0.11122
 PZ  C  30   0.00567    -0.00190     0.00130    -0.00647     0.00580     0.00307




    ROOT NO.   13          14          15          16          17          18

           -25.07703   -24.00484   -22.86527   -21.37666   -20.59802   -19.18891
  
  
  S  C   1   0.00894     0.11073    -0.00316    -0.17256    -0.03168     0.01292
 PX  C   1   0.02417    -0.23767     0.01977     0.01883     0.22257     0.18145
 PY  C   1  -0.14949     0.00812     0.19503     0.14222    -0.13378     0.17004
 PZ  C   1  -0.00382    -0.01464     0.00810     0.01542     0.00882     0.01820
  
  S  C   2   0.16074    -0.18641    -0.11413     0.11814     0.11974     0.01405
 PX  C   2   0.07499     0.03733    -0.08001     0.17492    -0.14162    -0.16554
 PY  C   2  -0.18213     0.01626     0.20221     0.08670    -0.14940     0.07039
 PZ  C   2   0.00238    -0.00351    -0.00285     0.01514    -0.00203    -0.00787
  
  S  C   3  -0.12924     0.11202     0.00994     0.08424    -0.06415    -0.14267
 PX  C   3   0.15796     0.14078    -0.15788    -0.13371    -0.01875     0.01658
 PY  C   3  -0.18044     0.07972     0.01990    -0.12163     0.15213    -0.06994
 PZ  C   3  -0.00088    -0.00121    -0.00154     0.00496     0.00342    -0.01068
  
  S  C   4  -0.11301     0.09568     0.01742    -0.09305    -0.05747    -0.16329
 PX  C   4  -0.07877     0.14660    -0.08158     0.16904     0.11447    -0.07283
 PY  C   4   0.24058     0.07728    -0.15845     0.00665    -0.08812     0.02196
 PZ  C   4  -0.00161     0.00250    -0.00080     0.00455     0.00161    -0.00949
  
  S  C   5   0.15159    -0.17939    -0.09937    -0.13474     0.11964     0.02221
 PX  C   5  -0.09964     0.02261     0.14586    -0.15466    -0.19675    -0.02543
 PY  C   5   0.16513     0.02146    -0.16552    -0.13013    -0.02400    -0.16836
 PZ  C   5  -0.00425     0.00177     0.00499    -0.00193    -0.00662    -0.00460
  
  S  C   6  -0.01123     0.12230    -0.01158     0.17542    -0.05180     0.00424
 PX  C   6  -0.11151    -0.11687     0.18803    -0.10746     0.00144     0.24635
 PY  C   6   0.08485    -0.20112    -0.08345     0.04933     0.24831     0.06763
 PZ  C   6  -0.00195    -0.00746     0.00349     0.00581     0.00619     0.00739
  
  S  C   7   0.12964     0.11244     0.06966    -0.20717    -0.07926     0.15505
 PX  C   7   0.02841    -0.12964     0.18365    -0.04789     0.02063     0.13846
 PY  C   7  -0.10273    -0.08610    -0.02642    -0.02357     0.21921    -0.00434
 PZ  C   7  -0.00197     0.00150    -0.00475     0.00564     0.00348    -0.01421
  
  S  C   8   0.14245     0.11023     0.03595     0.21358    -0.07950     0.15176
 PX  C   8  -0.09618    -0.13896     0.07060     0.06639     0.20222     0.08021
 PY  C   8   0.07237    -0.05662     0.16456     0.06095    -0.10850     0.15562
 PZ  C   8  -0.00443     0.00011     0.00103    -0.00197     0.00522    -0.01179
  
  S  C   9  -0.01381    -0.22460    -0.00914    -0.00501     0.01376     0.00651
 PX  C   9  -0.00106    -0.05731    -0.09561    -0.17573    -0.17134    -0.15103
 PY  C   9  -0.00358     0.09087     0.20378    -0.09125    -0.09293    -0.08869
 PZ  C   9  -0.00300     0.00521     0.00689    -0.00393     0.00186    -0.01570
  
  S  C  10   0.00462    -0.22519    -0.01245     0.01733     0.00779    -0.00125
 PX  C  10   0.00611     0.04528     0.10111     0.17678    -0.17088    -0.15737
 PY  C  10  -0.00833    -0.09644    -0.19942     0.07961    -0.09472    -0.07585
 PZ  C  10  -0.00169    -0.00249    -0.00137     0.00720     0.00060    -0.01675
  
  S  C  11  -0.12797     0.10286     0.04316     0.20503     0.07368    -0.16040
 PX  C  11  -0.09524     0.15926    -0.06370    -0.07489     0.19335     0.06910
 PY  C  11   0.06278     0.06236    -0.15585    -0.04432    -0.10061     0.13628
 PZ  C  11  -0.00185     0.00571     0.00057    -0.00092     0.01287    -0.00729
  
  S  H  12  -0.12943     0.06709     0.08645     0.09243     0.15763    -0.13692
  
  S  C  13  -0.12054     0.11069     0.06977    -0.20575     0.06710    -0.15582
 PX  C  13   0.02935     0.13959    -0.17851     0.06248     0.01392     0.15114
 PY  C  13  -0.09861     0.10781     0.03181     0.03225     0.21286    -0.01846
 PZ  C  13  -0.00626     0.00642     0.00301     0.00019     0.01410    -0.01007
  
  S  H  14   0.12622     0.05711     0.12031    -0.10315    -0.14958     0.13236
  
  S  H  15   0.07249     0.13957    -0.11619    -0.17929    -0.02817    -0.17915
  
  S  H  16   0.20877    -0.09061    -0.19638     0.07328     0.09049    -0.09472
  
  S  H  17   0.20163    -0.08649    -0.19245    -0.08794     0.11468    -0.08036
  
  S  H  18   0.06194     0.14198    -0.12936     0.16496    -0.03384    -0.18694
  
  S  H  19   0.14100     0.06610     0.09560     0.12127    -0.16535     0.15148
  
  S  H  20  -0.12433     0.07202     0.11013    -0.09642     0.15050    -0.14029
  
  S  C  21  -0.16416    -0.18917    -0.11168    -0.12538    -0.12003    -0.01200
 PX  C  21  -0.09358    -0.02042    -0.14869     0.15282    -0.18867    -0.00479
 PY  C  21   0.16331    -0.02623     0.15613     0.12031    -0.02449    -0.16637
 PZ  C  21   0.01499     0.00577     0.01713     0.01074     0.00945    -0.01976
  
  S  C  22   0.01201     0.13149    -0.01618     0.16872     0.04912    -0.00419
 PX  C  22  -0.10181     0.12681    -0.17461     0.10119     0.00951     0.25274
 PY  C  22   0.09193     0.20830     0.09861    -0.05306     0.23966     0.04041
 PZ  C  22   0.00731     0.00651     0.01076    -0.00321     0.01193    -0.01277
  
  S  C  23   0.00105     0.11986     0.00963    -0.16551     0.03257    -0.01175
 PX  C  23   0.02975     0.24736    -0.00671    -0.01054     0.21095     0.15598
 PY  C  23  -0.14514     0.00250    -0.18816    -0.13683    -0.12320     0.19618
 PZ  C  23  -0.00369    -0.00226    -0.00366    -0.00217    -0.00398    -0.00222
  
  S  C  24  -0.16392    -0.18108    -0.12417     0.11390    -0.10969    -0.01140
 PX  C  24   0.07508    -0.04776     0.07880    -0.17144    -0.13640    -0.13670
 PY  C  24  -0.17863    -0.00264    -0.19980    -0.08638    -0.14144     0.08581
 PZ  C  24  -0.00525    -0.00116    -0.00491    -0.00633    -0.00744    -0.00553
  
  S  H  25  -0.20442    -0.08843    -0.19377    -0.08032    -0.11083     0.09400
  
  S  H  26  -0.05538     0.15097    -0.12231     0.15659     0.03631     0.19071
  
  S  H  27  -0.06713     0.14443    -0.10450    -0.17080     0.01963     0.18334
  
  S  H  28  -0.20848    -0.07821    -0.20154     0.06286    -0.09110     0.09261
  
  S  C  29   0.09616     0.09987     0.02087    -0.09303     0.06069     0.15094
 PX  C  29  -0.07700    -0.15397     0.07713    -0.16171     0.10557    -0.07798
 PY  C  29   0.23822    -0.08347     0.14233    -0.01734    -0.09187     0.05719
 PZ  C  29   0.00549     0.00134     0.00829     0.00099     0.00903    -0.00985
  
  S  C  30   0.12562     0.10452     0.01296     0.08788     0.05883     0.14653
 PX  C  30   0.14710    -0.15779     0.15334     0.10841    -0.01670    -0.00317
 PY  C  30  -0.17844    -0.08343    -0.02469     0.13006     0.13876    -0.10299
 PZ  C  30  -0.00463    -0.00343     0.00305     0.00797     0.00946    -0.01186




    ROOT NO.   19          20          21          22          23          24

           -18.34053   -17.30038   -17.01986   -16.61205   -15.89321   -15.48946
  
  
  S  C   1  -0.15589    -0.02355    -0.06708    -0.07419    -0.04031     0.04493
 PX  C   1   0.08334    -0.18173    -0.00027     0.01490    -0.18286     0.18229
 PY  C   1   0.12251     0.19335    -0.04363     0.03460    -0.15594     0.05821
 PZ  C   1   0.02817     0.00319     0.00904     0.01714    -0.02415     0.00865
  
  S  C   2   0.15922     0.02091     0.01676     0.05658    -0.00378     0.03144
 PX  C   2   0.09479     0.21791     0.03594     0.04615     0.19190    -0.17253
 PY  C   2  -0.05740     0.02404    -0.23014    -0.14915     0.05937     0.30981
 PZ  C   2   0.02155     0.01418     0.01348     0.01651     0.00788    -0.01883
  
  S  C   3  -0.07380    -0.10904    -0.17102    -0.08706     0.09606     0.03037
 PX  C   3  -0.17338     0.02276    -0.06730    -0.01884    -0.23735    -0.19327
 PY  C   3  -0.01959    -0.23979     0.13475     0.05403     0.01507    -0.09055
 PZ  C   3   0.01101    -0.00196     0.01412     0.01013     0.00607    -0.01133
  
  S  C   4   0.06998     0.01389     0.19872     0.09050     0.07154    -0.01416
 PX  C   4   0.14140    -0.23156     0.02313    -0.02512    -0.07964     0.19304
 PY  C   4   0.09259     0.18099     0.02678     0.02674    -0.21301     0.07717
 PZ  C   4   0.00932    -0.00470     0.01562     0.00977     0.00290    -0.00022
  
  S  C   5  -0.16045    -0.00223    -0.02238    -0.05575     0.01382    -0.04793
 PX  C   5  -0.02843     0.24402     0.09332     0.09754     0.10107    -0.18348
 PY  C   5  -0.12282     0.01634    -0.18067    -0.11389     0.17446     0.28425
 PZ  C   5   0.00736     0.00826     0.01343     0.01240     0.00535    -0.00866
  
  S  C   6   0.15811     0.04570     0.05979     0.07390    -0.06701    -0.04761
 PX  C   6  -0.15861     0.07639    -0.02705    -0.05563    -0.20825    -0.16764
 PY  C   6   0.02209    -0.21807     0.08950     0.01618    -0.07817    -0.09589
 PZ  C   6   0.01151    -0.00170     0.01128     0.01101    -0.00965    -0.00614
  
  S  C   7  -0.08893    -0.01708     0.06544     0.03011    -0.08945     0.00566
 PX  C   7   0.17642     0.01174     0.20596     0.08477     0.14753     0.17347
 PY  C   7   0.09182    -0.11238    -0.25727     0.06761     0.06406    -0.18050
 PZ  C   7   0.00006    -0.00478    -0.00320     0.00038    -0.00529    -0.01541
  
  S  C   8   0.08934    -0.03952    -0.04521    -0.03296    -0.08422     0.01413
 PX  C   8  -0.14361    -0.03533     0.17878    -0.07919     0.13141     0.00767
 PY  C   8  -0.09081    -0.07644    -0.29473    -0.03759     0.10605    -0.17991
 PZ  C   8   0.00173    -0.00446     0.02111     0.00920     0.00007     0.00270
  
  S  C   9  -0.12777     0.15784     0.14520    -0.08768     0.06341     0.06375
 PX  C   9   0.02739     0.10991    -0.08270     0.04722    -0.05966     0.01019
 PY  C   9  -0.06193    -0.20398     0.14358    -0.00257     0.10291     0.01426
 PZ  C   9  -0.00059    -0.01463     0.01525     0.01159    -0.00697    -0.00060
  
  S  C  10   0.11886     0.07868    -0.20602     0.08350     0.08439    -0.05613
 PX  C  10   0.03814    -0.14982    -0.01781    -0.01163     0.07992     0.01594
 PY  C  10  -0.08799     0.22659    -0.00145    -0.07569    -0.10286     0.05215
 PZ  C  10  -0.00107    -0.00419     0.00509     0.00049    -0.01253    -0.00330
  
  S  C  11  -0.09838    -0.04359     0.00655    -0.06873    -0.07753    -0.03713
 PX  C  11  -0.16452     0.10468     0.12774    -0.06695    -0.16106    -0.00239
 PY  C  11  -0.08124    -0.03253    -0.10889     0.22820    -0.08509    -0.07500
 PZ  C  11  -0.01098     0.00401     0.01559    -0.00608    -0.02552     0.00503
  
  S  H  12  -0.05291     0.04843     0.15203    -0.24501    -0.04951     0.04503
  
  S  C  13   0.09991    -0.04178     0.00003     0.05112    -0.08147     0.00995
 PX  C  13   0.15746     0.05226    -0.00850    -0.17068    -0.17643     0.08138
 PY  C  13   0.10016    -0.00423    -0.19258     0.16250    -0.04157    -0.09683
 PZ  C  13   0.00291    -0.00445    -0.00625     0.02224    -0.01506    -0.00642
  
  S  H  14  -0.02355     0.07155     0.32409    -0.00007    -0.02476     0.21491
  
  S  H  15  -0.19796    -0.06063    -0.00492    -0.07087     0.18475    -0.10617
  
  S  H  16   0.15973     0.09900     0.19783     0.15674     0.03666    -0.28841
  
  S  H  17  -0.15359    -0.09253    -0.19300    -0.15482     0.09077     0.27085
  
  S  H  18   0.20521    -0.03446     0.04948     0.08393     0.15090     0.12627
  
  S  H  19   0.03091    -0.07337    -0.32062    -0.01036    -0.01473    -0.13422
  
  S  H  20   0.05183    -0.05249    -0.15163     0.23163    -0.00131    -0.10506
  
  S  C  21   0.16656     0.00384    -0.05168    -0.04036    -0.00008     0.03193
 PX  C  21  -0.02434    -0.20399     0.07862    -0.20424    -0.13431    -0.12922
 PY  C  21  -0.13140    -0.10532     0.00653     0.24429    -0.17766     0.12746
 PZ  C  21  -0.02121    -0.00095     0.00132     0.03681    -0.04038     0.02421
  
  S  C  22  -0.16802     0.01059     0.02265     0.10719    -0.05173     0.03000
 PX  C  22  -0.14428    -0.04235     0.09558     0.01989     0.25958    -0.09473
 PY  C  22   0.01752     0.24359    -0.06213    -0.05353     0.08856    -0.00435
 PZ  C  22  -0.00023     0.01262    -0.00624     0.01000    -0.03126     0.01475
  
  S  C  23   0.16305     0.00136    -0.03095    -0.11341    -0.05462    -0.03118
 PX  C  23   0.07619     0.18562    -0.08832     0.03760     0.15571     0.11695
 PY  C  23   0.15343    -0.16643     0.03362    -0.03044     0.15655    -0.01545
 PZ  C  23  -0.00036    -0.00512     0.00069     0.00949    -0.02052     0.00673
  
  S  C  24  -0.16740     0.01363     0.03851     0.04766     0.00548    -0.00644
 PX  C  24   0.10806    -0.20306     0.05812    -0.10836    -0.17279    -0.11970
 PY  C  24  -0.03847    -0.10695     0.00112     0.32686    -0.05816     0.18287
 PZ  C  24  -0.00320    -0.00940     0.00159     0.02076    -0.02700     0.00862
  
  S  H  25   0.16444    -0.00393     0.00573    -0.29714     0.07620    -0.13882
  
  S  H  26  -0.19922    -0.02525     0.09064     0.06890     0.20403    -0.06968
  
  S  H  27   0.21713    -0.03807    -0.03012    -0.06018     0.16129     0.02654
  
  S  H  28  -0.15379     0.01405    -0.01028     0.31908     0.03052     0.18586
  
  S  C  29  -0.05197    -0.03325    -0.01480     0.21968     0.08598     0.01823
 PX  C  29   0.12770     0.21804    -0.08906     0.07206     0.10437     0.12793
 PY  C  29   0.11870    -0.14850     0.06168    -0.04771     0.20763     0.02636
 PZ  C  29  -0.00944     0.00222     0.00620     0.01226    -0.02701     0.01038
  
  S  C  30   0.06708    -0.01891     0.05465    -0.20584     0.08114    -0.03444
 PX  C  30  -0.16381    -0.02585     0.03403     0.03283     0.24620    -0.10191
 PY  C  30  -0.06239     0.25933    -0.06617    -0.13125    -0.01669    -0.03915
 PZ  C  30  -0.01091     0.00889    -0.00013     0.00842    -0.02143    -0.00092




    ROOT NO.   25          26          27          28          29          30

           -14.83780   -14.77835   -14.63002   -14.54124   -13.58678   -13.41694
  
  
  S  C   1   0.01363     0.01474    -0.02384    -0.03697    -0.05865    -0.00284
 PX  C   1   0.04677    -0.16555     0.18763     0.06943    -0.06753    -0.05766
 PY  C   1   0.25799     0.02923    -0.08510     0.12340    -0.09994     0.02971
 PZ  C   1   0.06555     0.05409     0.09012    -0.00642    -0.09963     0.23937
  
  S  C   2   0.07800    -0.01555     0.00768     0.06952     0.02969     0.00791
 PX  C   2  -0.01234     0.14306    -0.18548    -0.02240     0.11420     0.03398
 PY  C   2   0.08764    -0.02351    -0.02429    -0.05089     0.07530    -0.02385
 PZ  C   2   0.05313     0.09512     0.08643    -0.03210    -0.08724     0.25050
  
  S  C   3  -0.06724     0.02129     0.02038    -0.01240    -0.02073    -0.00576
 PX  C   3   0.00420     0.03783     0.00714     0.05867    -0.25733    -0.07291
 PY  C   3  -0.13866    -0.05966     0.11679     0.00399    -0.00609     0.03694
 PZ  C   3   0.07122     0.16158     0.15893    -0.08115    -0.11530     0.28085
  
  S  C   4  -0.01764    -0.05645     0.05087    -0.00916    -0.00137    -0.00949
 PX  C   4  -0.01675    -0.07049     0.01754    -0.08511    -0.13866    -0.06793
 PY  C   4   0.17467    -0.01041    -0.06735     0.01041    -0.21188    -0.11798
 PZ  C   4   0.07369     0.14798     0.15800    -0.08877    -0.11642     0.27646
  
  S  C   5  -0.00714     0.06157    -0.07288    -0.04092     0.00780     0.02390
 PX  C   5   0.02383     0.01958     0.01782     0.10399     0.13819     0.04840
 PY  C   5   0.23275     0.00522    -0.05230     0.07328     0.08549     0.10936
 PZ  C   5   0.04641     0.08222     0.10278    -0.04029    -0.08565     0.24674
  
  S  C   6   0.01430    -0.01717     0.02092     0.03881    -0.04719    -0.02714
 PX  C   6  -0.02073     0.13306    -0.18192    -0.09355    -0.17203    -0.04379
 PY  C   6  -0.25249    -0.05731     0.09706    -0.11220    -0.03117    -0.10902
 PZ  C   6   0.03663     0.05953     0.08576    -0.02778    -0.08971     0.23302
  
  S  C   7   0.01100    -0.05669     0.06439     0.00543     0.01599     0.02196
 PX  C   7   0.03790    -0.06200     0.02243    -0.04061     0.25937     0.09624
 PY  C   7   0.08556     0.08873     0.01540     0.28412     0.05787     0.06884
 PZ  C   7   0.06938     0.17690     0.15708    -0.07717    -0.08548     0.14581
  
  S  C   8  -0.05484     0.02371    -0.01847    -0.05039    -0.00807    -0.00282
 PX  C   8   0.02662     0.10515    -0.21447    -0.15647     0.14265     0.12299
 PY  C   8  -0.19343     0.03342     0.13890     0.10443     0.19520     0.08845
 PZ  C   8   0.08088     0.15266     0.14579    -0.09833    -0.07276     0.14002
  
  S  C   9  -0.01422     0.02642    -0.00328     0.01755     0.01137     0.00237
 PX  C   9  -0.04305    -0.10679     0.23852     0.18238    -0.12779    -0.11618
 PY  C   9  -0.04962    -0.02923     0.10024     0.10867    -0.15092     0.00443
 PZ  C   9   0.10704     0.22557     0.21273    -0.12903    -0.02198     0.00280
  
  S  C  10   0.02540    -0.02089    -0.00717    -0.00910     0.01920    -0.01754
 PX  C  10  -0.09768    -0.02482    -0.05446    -0.24950    -0.24205    -0.07213
 PY  C  10  -0.05620    -0.03813    -0.00985    -0.13081    -0.05752    -0.09624
 PZ  C  10   0.09434     0.24254     0.21262    -0.11772    -0.02574     0.00263
  
  S  C  11  -0.00599     0.03736    -0.05838    -0.01849    -0.04161    -0.00436
 PX  C  11   0.06876     0.01237     0.02952     0.23993     0.21855     0.08573
 PY  C  11   0.07527    -0.20854     0.04023    -0.28143     0.16126     0.09605
 PZ  C  11   0.07604     0.21077     0.17161    -0.05818     0.06657    -0.11786
  
  S  H  12  -0.03252     0.18713    -0.02914     0.30897    -0.04470    -0.04667
  
  S  C  13   0.05765    -0.02665     0.00114     0.05661    -0.01811    -0.01187
 PX  C  13  -0.16823     0.12294    -0.04422     0.04654     0.19667     0.10310
 PY  C  13   0.18916    -0.02674    -0.22094    -0.22460     0.09376     0.00214
 PZ  C  13   0.09990     0.18091     0.15729    -0.12180     0.06197    -0.11988
  
  S  H  14  -0.04456    -0.11967     0.02218    -0.21309     0.09908     0.00328
  
  S  H  15  -0.21777     0.06108    -0.05084    -0.14756     0.10227    -0.02094
  
  S  H  16  -0.02731     0.08073    -0.06487     0.05444     0.01095     0.05448
  
  S  H  17   0.16131     0.02426    -0.08566    -0.00526     0.01681     0.07263
  
  S  H  18   0.03076    -0.12847     0.17631     0.10868     0.14617     0.03351
  
  S  H  19  -0.18074    -0.01199     0.17415     0.12006     0.10170     0.01608
  
  S  H  20   0.24269    -0.07701    -0.13433    -0.17820    -0.01799    -0.05802
  
  S  C  21  -0.07948     0.04384    -0.01152    -0.06092    -0.02508    -0.02238
 PX  C  21   0.07545    -0.00723    -0.07330    -0.08409     0.12261     0.10124
 PY  C  21  -0.06866     0.20176    -0.19613     0.10366     0.04529     0.01627
 PZ  C  21   0.02701     0.14125     0.08015    -0.03236     0.13004    -0.19285
  
  S  C  22  -0.00580    -0.00489     0.01054     0.04027     0.03834     0.02740
 PX  C  22   0.23635    -0.08633     0.08429     0.12149    -0.08086    -0.13995
 PY  C  22  -0.07402    -0.18325     0.19576    -0.08181    -0.04854     0.04792
 PZ  C  22   0.00932     0.09439     0.07781    -0.04670     0.12664    -0.17493
  
  S  C  23  -0.00122    -0.00707    -0.01263    -0.05035     0.04894     0.02286
 PX  C  23  -0.23899     0.10820    -0.02362    -0.10642    -0.11892    -0.00095
 PY  C  23   0.08057     0.17849    -0.17219     0.05544    -0.07380    -0.11771
 PZ  C  23   0.02992     0.09686     0.07517    -0.04300     0.12484    -0.18826
  
  S  C  24   0.01382    -0.07273     0.08318     0.01969    -0.01236    -0.00445
 PX  C  24   0.22347    -0.07170    -0.02337     0.08659     0.13680     0.02230
 PY  C  24  -0.14261     0.12817    -0.05788     0.09511     0.02124     0.08603
 PZ  C  24   0.04477     0.11919     0.10280    -0.05491     0.13101    -0.19775
  
  S  H  25   0.04165    -0.15221     0.10458    -0.13619    -0.01383     0.04694
  
  S  H  26   0.21156    -0.08867     0.08266     0.13510    -0.06840    -0.11443
  
  S  H  27  -0.04930     0.18741    -0.15562    -0.03089    -0.10013    -0.08718
  
  S  H  28  -0.19641     0.09317     0.00531     0.03745    -0.05426     0.05200
  
  S  C  29   0.06523    -0.01851    -0.02036     0.00112     0.01853     0.00581
 PX  C  29  -0.12521     0.04050     0.06040     0.07554    -0.14479    -0.11134
 PY  C  29   0.00359     0.14714    -0.07577     0.10734    -0.18197    -0.08241
 PZ  C  29   0.07371     0.21217     0.17168    -0.07592     0.13763    -0.23865
  
  S  C  30  -0.01187     0.06667    -0.03330     0.03293     0.00839     0.00485
 PX  C  30   0.14331    -0.08298     0.02164    -0.05892    -0.19029    -0.10190
 PY  C  30  -0.05042    -0.12189     0.08956    -0.10013    -0.01580    -0.02431
 PZ  C  30   0.08410     0.18848     0.17971    -0.10785     0.13730    -0.24452




    ROOT NO.   31          32          33          34          35          36

           -13.10516   -12.83998   -12.21104   -11.86523   -11.72974   -11.25167
  
  
  S  C   1  -0.00794    -0.01391     0.02038     0.01471     0.00915     0.01358
 PX  C   1   0.07598     0.23144    -0.06610    -0.00990    -0.03057     0.12338
 PY  C   1  -0.23561     0.05096     0.20250    -0.08453     0.03909     0.08127
 PZ  C   1   0.06178     0.02732     0.10309     0.28754     0.07106     0.01354
  
  S  C   2  -0.02476     0.02152    -0.03639    -0.00320    -0.02614    -0.03974
 PX  C   2  -0.07412    -0.22091     0.00834    -0.01120     0.00407    -0.15747
 PY  C   2   0.14976    -0.07308    -0.24832     0.07822    -0.07394    -0.16357
 PZ  C   2   0.06356    -0.02489     0.08572     0.20872     0.05934    -0.01168
  
  S  C   3   0.01955    -0.03495     0.00223     0.01365     0.00285     0.01403
 PX  C   3  -0.02890     0.19632    -0.06567     0.04551    -0.07030     0.18210
 PY  C   3  -0.09221     0.04937     0.31244    -0.10427     0.13381     0.16341
 PZ  C   3   0.09555    -0.04629     0.02364     0.04254     0.01668    -0.01073
  
  S  C   4   0.00462     0.04575     0.02067    -0.00939     0.00657    -0.00160
 PX  C   4  -0.08037    -0.23311     0.18822    -0.04840     0.10621    -0.15811
 PY  C   4   0.01543    -0.01966    -0.23024     0.08832    -0.11081    -0.16860
 PZ  C   4   0.10558    -0.03840    -0.00226     0.07613    -0.00490    -0.04842
  
  S  C   5  -0.00766    -0.00770    -0.03019     0.02435    -0.02449     0.02356
 PX  C   5   0.06528     0.25882    -0.15489     0.02290    -0.08792     0.16016
 PY  C   5  -0.14354     0.08633     0.14736    -0.05110     0.02552     0.10375
 PZ  C   5   0.10211     0.00447     0.02783     0.24354     0.02916    -0.03011
  
  S  C   6  -0.02342     0.00757     0.01659    -0.01534     0.00548    -0.00984
 PX  C   6  -0.12851    -0.23949     0.11905    -0.01779     0.04904    -0.10401
 PY  C   6   0.19929    -0.08673    -0.17939     0.05341    -0.02828    -0.11470
 PZ  C   6   0.09207     0.00678     0.06165     0.30907     0.05620    -0.02242
  
  S  C   7  -0.01236     0.06954    -0.00049    -0.00419    -0.04217    -0.02303
 PX  C   7   0.00077    -0.14994     0.06034    -0.05274     0.04192    -0.19810
 PY  C   7  -0.16338    -0.00363    -0.11429     0.03644    -0.15292    -0.19382
 PZ  C   7   0.05298    -0.03160    -0.03464    -0.13627    -0.02072     0.02734
  
  S  C   8  -0.00005    -0.07023    -0.03653     0.02071    -0.05539     0.00345
 PX  C   8  -0.09041     0.10225    -0.07207     0.04588    -0.15194     0.22310
 PY  C   8   0.06733     0.04694     0.12908    -0.06773     0.09866     0.13124
 PZ  C   8   0.04852    -0.02834    -0.05631    -0.10567    -0.05195    -0.03497
  
  S  C   9   0.02783     0.06042    -0.00081    -0.00344    -0.00571     0.00524
 PX  C   9   0.09664    -0.05320     0.10560    -0.06147     0.17834    -0.21442
 PY  C   9  -0.25104     0.04569     0.02127     0.05037    -0.25150    -0.16185
 PZ  C   9  -0.00812    -0.02387    -0.09139    -0.29647    -0.07686    -0.00631
  
  S  C  10   0.03754    -0.04959    -0.01529     0.01963     0.00240    -0.01257
 PX  C  10  -0.10029     0.01936     0.03191     0.06415    -0.16603     0.22572
 PY  C  10   0.24471     0.01793     0.07235    -0.04123     0.26052     0.18157
 PZ  C  10   0.01144    -0.02577    -0.07802    -0.31523    -0.04494     0.04356
  
  S  C  11   0.00143     0.07603     0.01569     0.00081    -0.04082     0.02052
 PX  C  11   0.08806     0.03731    -0.00428    -0.04921     0.12984    -0.22058
 PY  C  11  -0.05852     0.07197     0.10955    -0.02774    -0.18975    -0.12795
 PZ  C  11  -0.02172    -0.00042    -0.03337    -0.16245     0.01163     0.01876
  
  S  H  12   0.08902    -0.00964    -0.09276    -0.01205     0.24481     0.01886
  
  S  C  13  -0.00508    -0.08304    -0.00419     0.01430    -0.04904    -0.01652
 PX  C  13   0.01929    -0.14370     0.00074     0.02182    -0.15988     0.21269
 PY  C  13   0.16496     0.00092    -0.07693     0.00122     0.19493     0.15145
 PZ  C  13  -0.03443    -0.00015    -0.04850    -0.14132    -0.01327     0.00770
  
  S  H  14   0.11960    -0.04583     0.13907    -0.06450     0.15667     0.04845
  
  S  H  15   0.14226    -0.17739    -0.13786     0.04997    -0.01990    -0.13922
  
  S  H  16  -0.16737    -0.04563     0.20959    -0.06854     0.06400     0.04146
  
  S  H  17  -0.15800    -0.06278     0.19911    -0.05821     0.06257     0.02320
  
  S  H  18   0.11156     0.24393    -0.10824     0.00987    -0.04645     0.11034
  
  S  H  19   0.09203    -0.04192     0.13901    -0.07166     0.15262     0.02265
  
  S  H  20   0.12094     0.02843    -0.07344    -0.01852     0.25440     0.02419
  
  S  C  21  -0.00939     0.02030     0.03379     0.01728    -0.04524     0.03044
 PX  C  21  -0.09593     0.21843    -0.07358    -0.03147     0.15966    -0.18224
 PY  C  21   0.19790     0.10151     0.13141    -0.05809    -0.09959    -0.07833
 PZ  C  21  -0.04490     0.03502     0.09194     0.22671     0.01396    -0.01428
  
  S  C  22  -0.00998    -0.02044    -0.01086    -0.00289    -0.00126    -0.00971
 PX  C  22   0.12881    -0.19921     0.05035     0.04834    -0.07382     0.11320
 PY  C  22  -0.23613    -0.11939    -0.16164     0.02345     0.08989     0.09314
 PZ  C  22  -0.09036     0.03759     0.07981     0.32591     0.05004    -0.01464
  
  S  C  23  -0.01890     0.00547    -0.01170     0.01087     0.00257     0.01453
 PX  C  23  -0.09718     0.24297     0.00322    -0.02475     0.08141    -0.14024
 PY  C  23   0.25687     0.11784     0.17477    -0.02750    -0.09337    -0.06627
 PZ  C  23  -0.08124     0.02700     0.07863     0.33490     0.04890    -0.00336
  
  S  C  24  -0.02986    -0.02520     0.01968     0.00127    -0.03230    -0.02934
 PX  C  24   0.08508    -0.23944    -0.03990     0.02387    -0.05278     0.16621
 PY  C  24  -0.14459    -0.10673    -0.19874     0.01473     0.13086     0.12335
 PZ  C  24  -0.09212     0.00936     0.04456     0.24965     0.04465     0.01317
  
  S  H  25  -0.20827     0.02563    -0.15214     0.01169     0.15886    -0.00520
  
  S  H  26   0.12389    -0.21389     0.03856     0.03222    -0.07654     0.12092
  
  S  H  27   0.16179     0.22857     0.14886    -0.03705    -0.03621    -0.13158
  
  S  H  28  -0.17559     0.01376    -0.14730     0.00528     0.14236     0.01293
  
  S  C  29   0.01110    -0.03178    -0.01003    -0.00084    -0.00281    -0.02244
 PX  C  29   0.10951    -0.19069     0.09532     0.03259    -0.18014     0.19218
 PY  C  29  -0.04269    -0.02920    -0.18478     0.03376     0.26242     0.12896
 PZ  C  29  -0.06929     0.02156     0.03294     0.04831     0.01840     0.00818
  
  S  C  30   0.00521     0.04659    -0.00517     0.00515     0.00270     0.00830
 PX  C  30   0.00339     0.19368    -0.00594    -0.02777     0.20035    -0.19927
 PY  C  30   0.10661     0.08791     0.23853    -0.03142    -0.25015    -0.11489
 PZ  C  30  -0.08507     0.02659     0.03070     0.06931     0.00684    -0.00420




    ROOT NO.   37          38          39          40          41          42

           -10.65162    -9.97909    -9.67152    -8.31380    -8.09892    -6.78181
  
  
  S  C   1   0.00234     0.01219     0.00631     0.00952     0.00180     0.00611
 PX  C   1  -0.00400    -0.03687    -0.00758    -0.01815    -0.01898    -0.01020
 PY  C   1  -0.02607    -0.03557    -0.03021    -0.03101    -0.00810    -0.01817
 PZ  C   1   0.09650     0.34251     0.20347     0.30409     0.11408     0.19605
  
  S  C   2   0.00037    -0.00521    -0.00570    -0.00777     0.00343    -0.00501
 PX  C   2  -0.00721     0.01129    -0.01808    -0.01194     0.02040    -0.00975
 PY  C   2   0.03022     0.01548     0.02078     0.01089     0.00307     0.00558
 PZ  C   2   0.21197     0.13138     0.34539     0.30778    -0.14128     0.23062
  
  S  C   3   0.00278     0.00030     0.00714     0.00364    -0.00787    -0.00006
 PX  C   3  -0.00611    -0.00951    -0.00067    -0.00062    -0.01552     0.00065
 PY  C   3  -0.03271    -0.01138    -0.01906    -0.00500     0.00305    -0.00167
 PZ  C   3   0.24659    -0.27911     0.22564    -0.11890    -0.30409    -0.16576
  
  S  C   4   0.00198    -0.00340    -0.00171    -0.00353    -0.00184     0.00025
 PX  C   4   0.00036     0.01041    -0.00445    -0.00477     0.01267    -0.00745
 PY  C   4   0.02915     0.00956     0.01300    -0.00035    -0.00205    -0.00198
 PZ  C   4  -0.22393    -0.26965    -0.24314    -0.15372    -0.29695     0.16644
  
  S  C   5  -0.00381     0.00829    -0.00608    -0.00395     0.00446    -0.00437
 PX  C   5   0.00985    -0.01198     0.01765     0.01496    -0.01055     0.01019
 PY  C   5  -0.01320    -0.00925    -0.00927    -0.00511    -0.00141    -0.00183
 PZ  C   5  -0.21843     0.12358    -0.33731    -0.30144     0.14285    -0.23022
  
  S  C   6  -0.00056    -0.01129    -0.00051    -0.00228    -0.00687     0.00146
 PX  C   6  -0.00402     0.00364    -0.00514    -0.00262     0.00119    -0.00019
 PY  C   6   0.02239     0.00480     0.02104     0.01426    -0.00678     0.01127
 PZ  C   6  -0.11109     0.34161    -0.17279    -0.10574     0.31375    -0.20503
  
  S  C   7   0.00821    -0.00205     0.00358    -0.00235     0.00158     0.00012
 PX  C   7   0.02272    -0.00275     0.00893    -0.00897     0.01421    -0.01287
 PY  C   7   0.00830     0.00967     0.00271     0.00046     0.00439     0.00330
 PZ  C   7   0.34799    -0.23302     0.18255    -0.20858     0.07308    -0.35931
  
  S  C   8  -0.00363     0.00273    -0.00297     0.00449    -0.00346     0.00867
 PX  C   8   0.00661     0.00823    -0.00121    -0.00359    -0.00439    -0.00232
 PY  C   8  -0.03263    -0.01540    -0.00954     0.00798    -0.00239     0.00949
 PZ  C   8  -0.33503    -0.23059    -0.19254     0.18890    -0.12762     0.38214
  
  S  C   9  -0.00282    -0.00339     0.00710     0.00183     0.00353    -0.00519
 PX  C   9  -0.00705    -0.00883     0.00319     0.00179     0.00729    -0.00085
 PY  C   9   0.02499     0.01611     0.00531    -0.01711    -0.01039    -0.00270
 PZ  C   9  -0.27817    -0.01692     0.03068     0.35337     0.24143    -0.02053
  
  S  C  10  -0.00742    -0.00036    -0.00456     0.00314    -0.01794     0.00295
 PX  C  10  -0.00063     0.01105    -0.00914     0.00027    -0.01605     0.00181
 PY  C  10  -0.02608    -0.01620    -0.00394     0.00679    -0.00953     0.00139
 PZ  C  10   0.24918     0.00429    -0.03726    -0.04502     0.43024     0.03835
  
  S  C  11   0.00009     0.00578     0.00021    -0.00501     0.00232     0.00669
 PX  C  11  -0.02106    -0.02022     0.02276     0.00830    -0.00273    -0.01831
 PY  C  11   0.03375     0.01568    -0.00698    -0.01280     0.00695     0.01303
 PZ  C  11   0.31720     0.23041    -0.23809    -0.17527     0.08808     0.35902
  
  S  H  12  -0.02704    -0.01192     0.00534     0.00842    -0.00433    -0.00425
  
  S  C  13   0.01023     0.00285    -0.00178    -0.00732     0.00117     0.00514
 PX  C  13  -0.01906     0.00876     0.00423     0.00167    -0.00530    -0.00189
 PY  C  13   0.01878    -0.01786    -0.02211    -0.00866     0.00139     0.02344
 PZ  C  13  -0.34403     0.17211     0.23537     0.19619    -0.06667    -0.36988
  
  S  H  14  -0.00624    -0.00515    -0.00195     0.00113     0.00433    -0.00070
  
  S  H  15   0.01510     0.01701     0.00971     0.00543     0.00606     0.00042
  
  S  H  16  -0.01921    -0.00464    -0.01320    -0.00454     0.00312    -0.00151
  
  S  H  17  -0.01231    -0.00370    -0.00883    -0.00332     0.00136    -0.00030
  
  S  H  18   0.00316    -0.00825     0.00484     0.00193    -0.00281    -0.00014
  
  S  H  19  -0.02033    -0.00820    -0.00297     0.00203     0.00559    -0.00413
  
  S  H  20   0.00404    -0.00797    -0.00745     0.00393    -0.00116    -0.00247
  
  S  C  21   0.01249    -0.00013    -0.02259     0.01942    -0.01290    -0.01317
 PX  C  21   0.01266    -0.00649    -0.00460     0.00562    -0.00231    -0.00648
 PY  C  21  -0.02918     0.00711     0.04611    -0.03618     0.02098     0.02304
 PZ  C  21   0.19453    -0.09692    -0.32926     0.33404    -0.16254    -0.23960
  
  S  C  22  -0.00181    -0.00227     0.00297     0.00072     0.00330    -0.00132
 PX  C  22   0.00407    -0.01695    -0.01336     0.01686     0.00608    -0.00714
 PY  C  22   0.00586     0.01708    -0.01121    -0.00215    -0.01640    -0.00004
 PZ  C  22   0.11004    -0.32824    -0.18374     0.32142     0.14454    -0.17223
  
  S  C  23  -0.00050    -0.00912     0.00254    -0.00190     0.00856     0.00552
 PX  C  23   0.00139    -0.00093     0.00677    -0.00670     0.00226     0.00390
 PY  C  23  -0.00465     0.00120     0.00652    -0.00170    -0.00008    -0.00167
 PZ  C  23  -0.05941    -0.33915     0.15443    -0.09878     0.33238     0.19921
  
  S  C  24   0.00290     0.00073     0.00080    -0.00110     0.00131    -0.00045
 PX  C  24   0.00125     0.00379    -0.01515     0.01474    -0.00750    -0.00938
 PY  C  24   0.00132     0.00778    -0.01871     0.01779    -0.01221    -0.01149
 PZ  C  24  -0.17514    -0.11773     0.32653    -0.34333     0.13063     0.23258
  
  S  H  25   0.00835     0.00378    -0.00561    -0.00542    -0.00378     0.00605
  
  S  H  26  -0.00276    -0.00135    -0.00360     0.00137    -0.00030     0.00143
  
  S  H  27  -0.00359     0.00080     0.01046    -0.00683     0.00082     0.00145
  
  S  H  28  -0.00149     0.00406    -0.00239    -0.00031    -0.00598    -0.00020
  
  S  C  29   0.00216    -0.00770     0.00783    -0.00389     0.01281     0.00023
 PX  C  29  -0.01621     0.00359     0.00574    -0.00310     0.00641     0.00599
 PY  C  29  -0.01423    -0.00959    -0.00655     0.00946    -0.00735    -0.00449
 PZ  C  29   0.20081     0.28314    -0.23828    -0.09308    -0.34932     0.11025
  
  S  C  30  -0.00266    -0.00746    -0.00362     0.00885     0.00063    -0.00290
 PX  C  30   0.01630    -0.01357    -0.00680     0.00302     0.00649     0.00185
 PY  C  30   0.01310    -0.00650    -0.00006     0.00104     0.02346     0.00980
 PZ  C  30  -0.21032     0.24053     0.24930    -0.20071    -0.29734    -0.13655




    ROOT NO.   43          44          45          46          47          48

            -0.92731     0.23648     0.35976     1.26964     1.46542     1.85251
  
  
  S  C   1   0.00566    -0.00299    -0.01062    -0.00966     0.01246    -0.00284
 PX  C   1  -0.01824     0.00319     0.02505     0.01725    -0.02547     0.00746
 PY  C   1  -0.01328     0.00021     0.02286     0.01505    -0.02593     0.00661
 PZ  C   1   0.20287    -0.02528    -0.32125    -0.21123     0.33939    -0.08072
  
  S  C   2   0.00221     0.00248    -0.00420    -0.00401     0.00767    -0.00595
 PX  C   2   0.01810    -0.01049    -0.01911    -0.02118     0.01619    -0.01092
 PY  C   2  -0.00165     0.00880    -0.00051     0.00749     0.00464     0.00356
 PZ  C   2  -0.24299     0.25227     0.21825     0.35889    -0.12749     0.18608
  
  S  C   3  -0.00262    -0.01075     0.00822    -0.00360    -0.01580    -0.00235
 PX  C   3  -0.00628    -0.00215     0.00451    -0.00273    -0.00354    -0.00518
 PY  C   3   0.00344     0.00001     0.00072     0.00681    -0.00265     0.00577
 PZ  C   3  -0.15953    -0.23270     0.23977    -0.24405    -0.28645    -0.23007
  
  S  C   4   0.00004     0.00342    -0.01074    -0.01115     0.01965    -0.00886
 PX  C   4   0.00241     0.00073     0.00387     0.00765     0.00224     0.00461
 PY  C   4  -0.00568     0.00071     0.00433    -0.00405    -0.00129    -0.00779
 PZ  C   4  -0.17358     0.19458    -0.27665    -0.27605     0.26173    -0.21366
  
  S  C   5  -0.00437     0.00461     0.00792     0.01245    -0.00279     0.00801
 PX  C   5   0.00743    -0.00963    -0.00293    -0.00956    -0.01129    -0.00651
 PY  C   5  -0.00183     0.00156     0.00193     0.00294     0.00023     0.00176
 PZ  C   5  -0.23801     0.25870     0.19771     0.34706     0.13437     0.19760
  
  S  C   6  -0.00435     0.00463    -0.00183    -0.00213     0.00740    -0.00384
 PX  C   6  -0.00030     0.00079    -0.00128    -0.00077     0.00090    -0.00056
 PY  C   6  -0.00153     0.00592    -0.00722    -0.00261     0.01262    -0.00133
 PZ  C   6   0.21982    -0.32533     0.04621    -0.17140    -0.34573    -0.10101
  
  S  C   7  -0.00122     0.01051    -0.00529     0.00262     0.00738     0.00531
 PX  C   7   0.01179    -0.00240    -0.00635     0.00145     0.00532     0.00569
 PY  C   7  -0.00528     0.00942    -0.00057    -0.00512    -0.00240    -0.00984
 PZ  C   7   0.36068    -0.14115    -0.15498     0.20272     0.23865     0.32790
  
  S  C   8   0.00675    -0.00862    -0.00034     0.01149    -0.01980     0.02527
 PX  C   8  -0.00732     0.00107    -0.00042    -0.00613     0.00174    -0.00220
 PY  C   8   0.00981    -0.00434    -0.00464     0.00292    -0.00083     0.00616
 PZ  C   8   0.38438    -0.19141    -0.10314     0.22137    -0.21107     0.31676
  
  S  C   9  -0.00189     0.00836    -0.00106    -0.00565     0.01432    -0.01549
 PX  C   9   0.00386     0.00225    -0.00123     0.00324    -0.00113     0.00583
 PY  C   9  -0.00820    -0.00731    -0.01303    -0.00702     0.00211     0.02215
 PZ  C   9   0.01582    -0.05209     0.42565     0.01635     0.02003    -0.28596
  
  S  C  10   0.00439    -0.02670     0.00667     0.00098    -0.00603     0.01860
 PX  C  10  -0.00532    -0.00745     0.00402    -0.00035    -0.00039     0.00498
 PY  C  10   0.00391    -0.00504     0.00354     0.00613    -0.00301     0.00761
 PZ  C  10   0.02491     0.41255    -0.14581     0.01982    -0.00693    -0.26808
  
  S  C  11  -0.00715     0.00597     0.00218    -0.00341     0.00901    -0.01047
 PX  C  11   0.02051    -0.00155     0.00967     0.00810     0.01391    -0.00756
 PY  C  11  -0.00878    -0.00651     0.00153    -0.00881    -0.00026     0.01342
 PZ  C  11  -0.34169    -0.16051    -0.11233    -0.21516    -0.22089     0.34439
  
  S  H  12   0.00224    -0.00123    -0.00034    -0.00075    -0.00832     0.00964
  
  S  C  13   0.00567     0.00335    -0.00023     0.01394    -0.01739    -0.01720
 PX  C  13  -0.00361    -0.00068    -0.00633     0.00067    -0.00387    -0.00095
 PY  C  13   0.02220     0.01092     0.00727     0.01349    -0.00847    -0.02701
 PZ  C  13  -0.35402    -0.14893    -0.13666    -0.22206     0.16096     0.35454
  
  S  H  14   0.00090    -0.00180     0.00522     0.00131    -0.00544    -0.00569
  
  S  H  15  -0.00208     0.00182     0.00826     0.00964    -0.01321     0.00454
  
  S  H  16  -0.00062     0.00036     0.00452     0.00833    -0.00793     0.00798
  
  S  H  17   0.00393    -0.00460    -0.00373    -0.00684    -0.00318    -0.00377
  
  S  H  18   0.00123    -0.00365     0.00475     0.00363    -0.01124     0.00365
  
  S  H  19  -0.00301     0.00673     0.00268    -0.00537     0.01154    -0.01910
  
  S  H  20  -0.00275     0.00002    -0.00012    -0.00955     0.00928     0.01485
  
  S  C  21   0.01610     0.02364     0.02628    -0.03926     0.02207     0.03374
 PX  C  21   0.00938     0.01042     0.00482    -0.00800    -0.00074     0.00499
 PY  C  21  -0.02192    -0.02857    -0.02101     0.02995    -0.00498    -0.02035
 PZ  C  21   0.24105     0.29888     0.23501    -0.30834     0.08906     0.20136
  
  S  C  22  -0.00445    -0.00239    -0.01450     0.01332    -0.02313    -0.01180
 PX  C  22  -0.00731    -0.00083    -0.01111     0.00361    -0.00788    -0.00082
 PY  C  22   0.01410     0.01317     0.01927    -0.01911     0.00942     0.01346
 PZ  C  22  -0.18167    -0.02692    -0.35445     0.17817    -0.32783    -0.10461
  
  S  C  23  -0.00582    -0.01313     0.00714     0.00009     0.02955     0.00203
 PX  C  23   0.00109    -0.00053     0.00409    -0.00221     0.00327     0.00265
 PY  C  23   0.00055     0.00353    -0.00542     0.00184    -0.00984    -0.00175
 PZ  C  23  -0.19755    -0.34100     0.06030     0.13165     0.34735    -0.07114
  
  S  C  24   0.00161     0.00831    -0.00468    -0.00247    -0.02210     0.00344
 PX  C  24  -0.00342    -0.00263    -0.00655     0.00499    -0.00167    -0.00398
 PY  C  24  -0.00811    -0.01225    -0.00673     0.01006     0.01112    -0.00663
 PZ  C  24   0.23452     0.28277     0.24283    -0.29899    -0.13108     0.18870
  
  S  H  25  -0.00708    -0.01566    -0.01314     0.02769    -0.01170    -0.02607
  
  S  H  26   0.00059    -0.00139     0.00777    -0.00515     0.01486     0.00444
  
  S  H  27   0.00345     0.00709    -0.00375     0.00125    -0.01830    -0.00302
  
  S  H  28   0.00166    -0.00317     0.00399     0.00237     0.01188    -0.00396
  
  S  C  29  -0.00394     0.00000    -0.01887     0.01377    -0.02407    -0.00996
 PX  C  29  -0.01299    -0.00785    -0.01120     0.00916    -0.00733    -0.00823
 PY  C  29   0.00199     0.00870    -0.00183    -0.00068    -0.00802    -0.00455
 PZ  C  29   0.11072    -0.27262     0.23176     0.22680     0.28930    -0.23079
  
  S  C  30   0.00006    -0.00527     0.01111    -0.01017     0.02526     0.00978
 PX  C  30   0.00274     0.00002     0.01011    -0.00194     0.00650    -0.00122
 PY  C  30  -0.01244    -0.01130     0.00661    -0.00700     0.00703     0.00894
 PZ  C  30   0.12930     0.16792    -0.32024     0.24963    -0.23845    -0.22776




    ROOT NO.   49          50          51          52          53          54

             2.40644     2.54133     2.84651     3.15157     3.35948     3.42403
  
  
  S  C   1  -0.10057    -0.09771    -0.14978    -0.06015     0.22117    -0.11562
 PX  C   1  -0.00245    -0.03823    -0.00846    -0.02671    -0.01056    -0.07363
 PY  C   1   0.00681    -0.03251    -0.01565    -0.03146     0.02496     0.05255
 PZ  C   1  -0.24338     0.19668    -0.08892     0.24878     0.04218     0.01600
  
  S  C   2   0.12475     0.16010     0.17197     0.08660    -0.16154     0.20353
 PX  C   2   0.00948     0.03751     0.00310     0.01492     0.05054     0.02626
 PY  C   2   0.05397     0.05708     0.05158     0.00572    -0.00032     0.03736
 PZ  C   2   0.18693    -0.13824     0.09495    -0.25301    -0.06308    -0.00744
  
  S  C   3  -0.21027    -0.25019    -0.23465    -0.07219     0.06369    -0.17281
 PX  C   3   0.00336     0.01738     0.06187     0.02605    -0.08036    -0.08756
 PY  C   3  -0.02957    -0.04148    -0.02761    -0.00243    -0.03971     0.13064
 PZ  C   3  -0.04215     0.04128    -0.08371     0.31961     0.09691     0.00895
  
  S  C   4   0.19986     0.26108     0.23965     0.07055    -0.03221    -0.20217
 PX  C   4   0.01996     0.02702    -0.01732    -0.00284     0.07134     0.06156
 PY  C   4  -0.02387    -0.02965    -0.06703    -0.02618     0.07540    -0.13238
 PZ  C   4   0.04437    -0.05649     0.08285    -0.31610    -0.10185     0.01108
  
  S  C   5  -0.14168    -0.16791    -0.20283    -0.05875     0.13670     0.21817
 PX  C   5  -0.04513    -0.07244    -0.04506    -0.01813    -0.03648     0.05095
 PY  C   5  -0.00144     0.00302     0.00761     0.01268    -0.03555     0.01148
 PZ  C   5  -0.18072     0.15907    -0.08398     0.26446     0.06003    -0.00949
  
  S  C   6   0.07960     0.11222     0.14335     0.07380    -0.19397    -0.10725
 PX  C   6   0.02394     0.02546     0.03078     0.00726    -0.02343     0.00624
 PY  C   6   0.00455     0.02038     0.00502     0.00026     0.03705    -0.09283
 PZ  C   6   0.25093    -0.19658     0.09753    -0.24888    -0.05667    -0.00786
  
  S  C   7   0.19229     0.19401     0.09078     0.01791     0.12036     0.26718
 PX  C   7  -0.01987    -0.03278    -0.09070    -0.03173     0.09010     0.01295
 PY  C   7   0.02924     0.00927    -0.04643    -0.01242     0.07631     0.02376
 PZ  C   7  -0.08635     0.09637     0.03690    -0.17926    -0.07969     0.00226
  
  S  C   8  -0.15901    -0.20303    -0.07290    -0.00655    -0.17804     0.25383
 PX  C   8  -0.01810     0.00014     0.07863     0.03161    -0.11882     0.01145
 PY  C   8   0.03552     0.04601     0.05867     0.02533    -0.03020    -0.02369
 PZ  C   8   0.09845    -0.07068    -0.02895     0.16445     0.09341    -0.01211
  
  S  C   9   0.17251     0.16999    -0.07188    -0.04845     0.33656    -0.17194
 PX  C   9   0.00614    -0.02044    -0.07160    -0.02030     0.01594     0.08518
 PY  C   9  -0.01384    -0.02420    -0.02302    -0.00500    -0.06070    -0.13811
 PZ  C   9  -0.23198     0.22831    -0.02424    -0.02239    -0.09728    -0.00087
  
  S  C  10  -0.19166    -0.15438     0.08131     0.03806    -0.30788    -0.21880
 PX  C  10   0.00262     0.02337     0.07388     0.01295     0.03655    -0.07101
 PY  C  10  -0.00325     0.00454     0.04828     0.01901    -0.06880     0.13121
 PZ  C  10   0.21583    -0.24755     0.02071     0.03141     0.06406    -0.01518
  
  S  C  11   0.16653     0.13463    -0.19426    -0.05706     0.13992     0.25633
 PX  C  11  -0.01076    -0.02014    -0.05318    -0.01101    -0.10196    -0.01788
 PY  C  11   0.01506     0.01036    -0.05834    -0.00253    -0.06270     0.00059
 PZ  C  11  -0.10271     0.10654    -0.03451     0.12310    -0.04137    -0.01361
  
  S  H  12  -0.09228    -0.07758     0.12223     0.04701    -0.11281    -0.12095
  
  S  C  13  -0.15222    -0.12895     0.16541     0.06233    -0.15079     0.23415
 PX  C  13  -0.00826     0.00329     0.07381     0.01082     0.09089     0.01298
 PY  C  13   0.01798     0.03366     0.00836     0.00476     0.06773    -0.01490
 PZ  C  13   0.09621    -0.10430     0.05577    -0.12187     0.05434     0.01379
  
  S  H  14  -0.11156    -0.12025    -0.06733    -0.01140    -0.08756    -0.13540
  
  S  H  15   0.07212     0.05580     0.09678     0.02460    -0.13745     0.08667
  
  S  H  16  -0.06130    -0.09469    -0.10083    -0.06371     0.10506    -0.09955
  
  S  H  17   0.08809     0.09484     0.13253     0.03264    -0.10357    -0.11435
  
  S  H  18  -0.04333    -0.07568    -0.08362    -0.05342     0.11287     0.08102
  
  S  H  19   0.08611     0.11586     0.04536     0.00409     0.11405    -0.11870
  
  S  H  20   0.08628     0.06674    -0.10132    -0.03873     0.09445    -0.09589
  
  S  C  21   0.14419     0.05000    -0.26152     0.02325    -0.20196     0.16988
 PX  C  21  -0.03435    -0.04280     0.05677     0.03435    -0.02659    -0.05375
 PY  C  21  -0.00623     0.01513    -0.02198    -0.01436    -0.04928    -0.01001
 PZ  C  21   0.13642    -0.19036     0.03604     0.22320     0.04018    -0.03450
  
  S  C  22  -0.10741    -0.02372     0.21781    -0.03800     0.26437    -0.05969
 PX  C  22   0.01387     0.01775    -0.03634    -0.00728    -0.01810    -0.01059
 PY  C  22   0.02008    -0.00066    -0.01239     0.00749     0.01954     0.09487
 PZ  C  22  -0.21404     0.26230    -0.03510    -0.22669    -0.04034     0.02224
  
  S  C  23   0.10083     0.02067    -0.19867     0.02643    -0.23044    -0.15016
 PX  C  23  -0.01032    -0.02051     0.02209     0.02160    -0.02076     0.06797
 PY  C  23  -0.01989     0.00179     0.03165    -0.01103     0.04014    -0.04333
 PZ  C  23   0.22487    -0.26218     0.02398     0.23063     0.03787    -0.00112
  
  S  C  24  -0.11569    -0.06713     0.23561     0.03149     0.15355     0.22601
 PX  C  24   0.01140     0.02163    -0.00867    -0.02337     0.06020    -0.01596
 PY  C  24   0.04078     0.02194    -0.05370    -0.01024     0.01090    -0.03515
 PZ  C  24  -0.17282     0.19319     0.01103    -0.24375    -0.00653     0.00493
  
  S  H  25  -0.08422    -0.02146     0.15689    -0.02429     0.13415    -0.07875
  
  S  H  26   0.06858     0.01780    -0.14020     0.02123    -0.17130     0.05303
  
  S  H  27  -0.06335    -0.01168     0.11874    -0.01907     0.13479     0.10706
  
  S  H  28   0.06521     0.03683    -0.14523    -0.01854    -0.11061    -0.11711
  
  S  C  29  -0.17479    -0.12002     0.30753     0.05590     0.08813    -0.16750
 PX  C  29   0.00274     0.02768     0.02045    -0.02797     0.09106    -0.05359
 PY  C  29  -0.00381    -0.00234     0.04765     0.01705     0.05691     0.13613
 PZ  C  29  -0.04533     0.05020     0.05056    -0.27507     0.02266     0.02095
  
  S  C  30   0.16006     0.12204    -0.28525    -0.07614    -0.05074    -0.19132
 PX  C  30  -0.00108    -0.01455    -0.04854     0.00109    -0.09841     0.07638
 PY  C  30  -0.02463    -0.01682     0.03105    -0.00199    -0.01707    -0.11557
 PZ  C  30   0.06060    -0.05809    -0.06580     0.28280    -0.03279    -0.02647




    ROOT NO.   55          56          57          58          59          60

             3.58984     3.69899     3.80881     3.88642     4.17906     4.20564
  
  
  S  C   1   0.35599     0.19043    -0.10862     0.10121    -0.01172    -0.07052
 PX  C   1  -0.03809    -0.04676    -0.01129     0.10320     0.08483    -0.10278
 PY  C   1   0.06048     0.02829     0.00716    -0.07822    -0.02768     0.05411
 PZ  C   1  -0.07642     0.06296     0.00729     0.00043     0.01673    -0.00910
  
  S  C   2  -0.15048    -0.02495     0.07297    -0.25696    -0.16706     0.23758
 PX  C   2   0.13374     0.09985    -0.03585    -0.03353    -0.03969     0.01701
 PY  C   2   0.09050     0.06519    -0.03440    -0.01819     0.00462    -0.03438
 PZ  C   2   0.07609    -0.09121    -0.00390    -0.01130    -0.01854     0.01391
  
  S  C   3  -0.20083    -0.19264     0.06235     0.18804     0.02700    -0.03883
 PX  C   3  -0.03370     0.00631    -0.03810     0.01479    -0.16209     0.10698
 PY  C   3  -0.11319    -0.06432     0.07232    -0.13304    -0.00445     0.07278
 PZ  C   3  -0.12331     0.19135     0.00310     0.00869     0.00893    -0.00005
  
  S  C   4   0.19989     0.16050    -0.13800     0.11947    -0.11273     0.01086
 PX  C   4   0.07162     0.03755     0.04165    -0.11922    -0.09906     0.14414
 PY  C   4  -0.05016    -0.08032     0.04154     0.10687    -0.07884     0.05808
 PZ  C   4   0.12609    -0.18101    -0.00352    -0.02803     0.00098     0.00164
  
  S  C   5   0.05253     0.00451     0.11547    -0.26780    -0.14043     0.25154
 PX  C   5  -0.13458    -0.09795     0.04865     0.01236     0.06695    -0.05909
 PY  C   5  -0.09414    -0.05620     0.03334    -0.00839    -0.00226     0.02520
 PZ  C   5  -0.07964     0.09549    -0.00163     0.02379     0.01214    -0.01645
  
  S  C   6  -0.33777    -0.18988     0.03185     0.16734     0.09774    -0.11860
 PX  C   6  -0.00880     0.00141    -0.00418    -0.01140     0.01258    -0.00772
 PY  C   6   0.09786     0.05944    -0.06457     0.10764     0.03988    -0.09967
 PZ  C   6   0.05475    -0.07675    -0.00152    -0.00192    -0.00575     0.00304
  
  S  C   7   0.15216     0.08305     0.07470    -0.13332     0.29482    -0.16543
 PX  C   7  -0.05226    -0.08250     0.06440     0.06961     0.07682    -0.06998
 PY  C   7  -0.04400    -0.05647     0.05687     0.06184    -0.03828     0.01338
 PZ  C   7   0.13091    -0.19541    -0.00628    -0.01766    -0.01300    -0.00440
  
  S  C   8  -0.07607     0.03328    -0.07148    -0.13894     0.27468    -0.22037
 PX  C   8   0.06456     0.08295    -0.10657     0.02779    -0.06159    -0.01982
 PY  C   8   0.04179     0.05632    -0.04734     0.01907     0.01912    -0.04670
 PZ  C   8  -0.12740     0.17956     0.01515     0.03380    -0.02171     0.01411
  
  S  C   9  -0.05623    -0.16504     0.21814     0.05259     0.06150     0.13959
 PX  C   9  -0.04369    -0.01501     0.00108    -0.07834     0.14935    -0.07651
 PY  C   9  -0.01882     0.03135    -0.09016    -0.07245     0.05809     0.11454
 PZ  C   9   0.20241    -0.28469    -0.02687    -0.04660     0.01502    -0.01376
  
  S  C  10   0.03969     0.13103    -0.22452    -0.06222    -0.06226     0.12712
 PX  C  10   0.03956     0.00793     0.07566    -0.07044     0.15702     0.09164
 PY  C  10   0.05417     0.06541    -0.03865    -0.06033     0.06393    -0.10938
 PZ  C  10  -0.19611     0.29974     0.00040     0.03443     0.00668     0.02658
  
  S  C  11  -0.08060    -0.09839    -0.04941     0.12789    -0.27453    -0.23720
 PX  C  11  -0.00885     0.04195    -0.14689     0.02789    -0.07438     0.00018
 PY  C  11   0.00259     0.01403    -0.10017    -0.00479     0.06167     0.08011
 PZ  C  11   0.15469    -0.23133    -0.02300    -0.04068    -0.01787    -0.02290
  
  S  H  12   0.07576     0.07782     0.02179    -0.08204     0.27973     0.21188
  
  S  C  13   0.08987     0.07226     0.07018     0.16537    -0.29101    -0.19667
 PX  C  13   0.01707    -0.03673     0.12231     0.09149     0.04630     0.06126
 PY  C  13   0.01003    -0.04976     0.07172     0.05737    -0.05105    -0.01853
 PZ  C  13  -0.15597     0.22780     0.03884     0.04774    -0.02372     0.00280
  
  S  H  14  -0.12968    -0.07156    -0.04324     0.08901    -0.28577     0.14783
  
  S  H  15  -0.20432    -0.11397     0.06423    -0.07157     0.03963     0.01919
  
  S  H  16   0.11599     0.02331    -0.04959     0.16060     0.15166    -0.19781
  
  S  H  17  -0.02906     0.00358    -0.08661     0.17503     0.13819    -0.21876
  
  S  H  18   0.21775     0.12268    -0.02536    -0.11189    -0.03337     0.04907
  
  S  H  19   0.05829    -0.02326     0.06102     0.08538    -0.25318     0.17644
  
  S  H  20  -0.06015    -0.04542    -0.06640    -0.10352     0.27537     0.16355
  
  S  C  21   0.07050     0.01736    -0.09927     0.26405     0.11836     0.24895
 PX  C  21   0.05114     0.01153     0.17341     0.03311     0.03444     0.04258
 PY  C  21   0.02106     0.03915     0.11266     0.01755    -0.01041    -0.02449
 PZ  C  21   0.07696    -0.14065    -0.00946    -0.06669    -0.03451    -0.05894
  
  S  C  22  -0.13719    -0.08296    -0.29615    -0.21629    -0.04684    -0.09859
 PX  C  22  -0.00245     0.00424    -0.01767    -0.02012     0.01671     0.00848
 PY  C  22  -0.00984    -0.03322    -0.14738     0.09946     0.03882     0.10629
 PZ  C  22  -0.06084     0.11673     0.03209     0.04538     0.01488     0.02700
  
  S  C  23   0.10236     0.09634     0.36865    -0.06554    -0.00408    -0.08362
 PX  C  23   0.03717    -0.00047     0.04938     0.12320     0.06014     0.10043
 PY  C  23  -0.02476    -0.00665    -0.02468    -0.08117    -0.00587    -0.04128
 PZ  C  23   0.06186    -0.12217    -0.05823    -0.02414    -0.00688    -0.00753
  
  S  C  24   0.00748    -0.07695    -0.10841     0.28052     0.13261     0.24676
 PX  C  24  -0.05609    -0.02783    -0.17059    -0.05990    -0.01741    -0.00587
 PY  C  24  -0.02810    -0.01512    -0.10665    -0.02972     0.01863     0.04475
 PZ  C  24  -0.09589     0.14838     0.03571     0.02236     0.00093     0.00625
  
  S  H  25  -0.05127    -0.00702     0.07661    -0.16469    -0.12190    -0.21627
  
  S  H  26   0.08898     0.05767     0.20553     0.15281     0.00288     0.03933
  
  S  H  27  -0.06276    -0.05432    -0.22222     0.04822    -0.03176     0.02099
  
  S  H  28  -0.00055     0.05645     0.07893    -0.17746    -0.13059    -0.21100
  
  S  C  29   0.05915     0.00637     0.34811    -0.07334     0.07332    -0.00432
 PX  C  29  -0.05392    -0.02027    -0.01518    -0.13655    -0.08013    -0.14225
 PY  C  29   0.01828    -0.03547     0.07773     0.12575    -0.08390    -0.05726
 PZ  C  29  -0.16204     0.24866     0.04813     0.05425     0.01967     0.02928
  
  S  C  30  -0.10055     0.01433    -0.27461    -0.25467     0.01445    -0.02459
 PX  C  30   0.01470     0.03929    -0.02134     0.01986    -0.13653    -0.11423
 PY  C  30   0.01026     0.03537     0.14704    -0.11493    -0.00705    -0.07622
 PZ  C  30   0.16694    -0.24806    -0.04925    -0.05837    -0.00249    -0.02029




    ROOT NO.   61          62          63          64          65          66

             5.18556     5.38033     5.48412     5.66522     6.12571     6.34827
  
  
  S  C   1   0.04990    -0.00621    -0.27290    -0.18508    -0.05877    -0.02128
 PX  C   1  -0.11108     0.01418     0.07613     0.19505     0.11785     0.06961
 PY  C   1   0.05865    -0.00729     0.28566     0.08549     0.01473     0.00135
 PZ  C   1  -0.00351     0.00032     0.06157     0.03689     0.01501     0.00869
  
  S  C   2   0.14540    -0.01567    -0.06217    -0.20921    -0.12220    -0.07776
 PX  C   2   0.06225    -0.00650    -0.18124    -0.15319    -0.05590    -0.02467
 PY  C   2  -0.01023     0.00364     0.02904     0.12953     0.18093     0.16981
 PZ  C   2   0.00695    -0.00057    -0.03173    -0.02397    -0.01182    -0.00851
  
  S  C   3  -0.05804    -0.00218     0.06316    -0.03783    -0.14709    -0.14302
 PX  C   3   0.15878    -0.01829     0.01766    -0.06219     0.08197     0.09766
 PY  C   3   0.03153    -0.00278    -0.02506    -0.12062    -0.13854    -0.11725
 PZ  C   3  -0.00064     0.00016     0.00894     0.00736     0.00567     0.00381
  
  S  C   4   0.05168    -0.00423    -0.00860     0.06414     0.13360     0.10834
 PX  C   4  -0.11446     0.01711    -0.05051     0.12328     0.08286     0.05277
 PY  C   4  -0.11179     0.00290     0.07161     0.02723    -0.14691    -0.15663
 PZ  C   4   0.00019     0.00059    -0.00720    -0.00074     0.00101     0.00097
  
  S  C   5  -0.16256     0.02479    -0.10429     0.16064     0.11425     0.06382
 PX  C   5  -0.02415    -0.00202    -0.01549    -0.07391    -0.11894    -0.08994
 PY  C   5  -0.13736     0.02143    -0.21800     0.09955     0.13405     0.09757
 PZ  C   5   0.00857    -0.00164     0.01754    -0.00723    -0.01031    -0.00699
  
  S  C   6  -0.16571     0.02042    -0.28785     0.03741     0.05590     0.03646
 PX  C   6   0.11118    -0.01628     0.30003    -0.00909    -0.06498    -0.04737
 PY  C   6   0.08913    -0.01331    -0.04878    -0.15083    -0.08591    -0.04250
 PZ  C   6  -0.00538     0.00075    -0.02681    -0.00720    -0.00076    -0.00020
  
  S  C   7  -0.21020     0.02173    -0.03065     0.06272    -0.08815    -0.10638
 PX  C   7  -0.08735     0.00017    -0.00415    -0.02694    -0.12253    -0.13184
 PY  C   7   0.08757    -0.02804     0.03599    -0.13004     0.08743     0.27389
 PZ  C   7   0.00880    -0.00072    -0.00420    -0.00638     0.00298     0.00910
  
  S  C   8   0.21631    -0.01280    -0.05867    -0.10236     0.09722     0.12000
 PX  C   8  -0.02701    -0.00251    -0.03672     0.10613    -0.01025    -0.10551
 PY  C   8   0.08275    -0.00565    -0.05004    -0.03939     0.12868     0.17693
 PZ  C   8  -0.01530    -0.00022     0.00582     0.00569    -0.00779    -0.00882
  
  S  C   9   0.00502     0.00825     0.06860    -0.14186     0.00318     0.13660
 PX  C   9   0.15891    -0.01093    -0.03216    -0.06430     0.07621     0.09998
 PY  C   9   0.09113     0.03047    -0.04059     0.12498     0.04244    -0.16666
 PZ  C   9   0.01465     0.00165    -0.00538     0.00338     0.00539    -0.00491
  
  S  C  10  -0.00403     0.03505    -0.02868     0.17204    -0.00287    -0.19793
 PX  C  10  -0.13822     0.02093     0.04898    -0.08171    -0.06443     0.08229
[...]
  S   H   18   -0.0869   -0.0602    0.0124   -0.0474    0.0165    0.3224    0.0213    0.0813
  S   H   19   -0.1447   -0.2131   -0.2307    0.1759   -0.2100    0.0483   -0.0063   -0.0899
  S   H   20    0.1642   -0.1845   -0.3395   -0.0490    0.0075   -0.0090    0.0451    0.0855
  S   C   21    0.1394   -0.0674    0.0338    0.0031   -0.0077   -0.0040    0.0672    0.0560
  Px  C   21    0.1565   -0.1229    0.2248    0.0099   -0.2644    0.0076   -0.0770   -0.1611
  Py  C   21   -0.1486    0.0899   -0.0736   -0.0080    0.0878   -0.0167    0.2738    0.1505
  Pz  C   21   -0.0355    0.0202   -0.0189   -0.0012    0.0192   -0.0015    0.0232    0.0122
  S   C   22    0.0467   -0.0094   -0.0504   -0.0014    0.0425    0.0065   -0.1188    0.0085
  Px  C   22    0.0653   -0.0231   -0.0568   -0.0047    0.0545   -0.0268    0.4941   -0.0460
  Py  C   22    0.1112   -0.0525    0.0514    0.0002   -0.0508    0.0027   -0.0414    0.0956
  Pz  C   22    0.0053   -0.0031    0.0053    0.0003   -0.0048    0.0012   -0.0210    0.0045
  S   C   23   -0.0790    0.0358   -0.0511   -0.0016    0.0440   -0.0066    0.1216   -0.0623
  Px  C   23   -0.1382    0.0539    0.0247   -0.0023   -0.0304    0.0104   -0.2133    0.1120
  Py  C   23   -0.0408    0.0254   -0.0588   -0.0039    0.0496    0.0238   -0.4500    0.1679
  Pz  C   23    0.0050   -0.0020    0.0002    0.0000    0.0002    0.0005   -0.0098    0.0047
  S   C   24   -0.1451    0.0553    0.0356    0.0033   -0.0060    0.0029   -0.0580    0.0165
  Px  C   24    0.0713   -0.0355    0.0579   -0.0015   -0.0722    0.0105   -0.2073    0.1276
  Py  C   24   -0.1977    0.0990    0.2452    0.0111   -0.2579   -0.0129    0.2368   -0.0093
  Pz  C   24   -0.0060    0.0035    0.0107    0.0003   -0.0122   -0.0002    0.0039    0.0026
  S   H   25   -0.2347    0.1420   -0.1611   -0.0107    0.1717   -0.0110    0.1609    0.1257
  S   H   26   -0.0818    0.0292    0.0500    0.0038   -0.0401    0.0158   -0.2939    0.0290
  S   H   27    0.1310   -0.0593    0.0334    0.0038   -0.0188   -0.0154    0.2984   -0.1224
  S   H   28    0.2392   -0.1069   -0.1694   -0.0101    0.1562    0.0101   -0.1899    0.0413
  S   C   29    0.1869   -0.1361    0.1612   -0.0016   -0.2310   -0.0009    0.0195   -0.0047
  Px  C   29   -0.1030    0.0514    0.0298   -0.0066   -0.1047    0.0097   -0.0998   -0.2164
  Py  C   29    0.1381   -0.1107   -0.1010    0.0130    0.1530    0.0012   -0.0458   -0.1635
  Pz  C   29    0.0125   -0.0080    0.0050   -0.0010   -0.0109    0.0003   -0.0032   -0.0061
  S   C   30   -0.1633    0.0943    0.1969   -0.0023   -0.2428    0.0012   -0.0014    0.0236
  Px  C   30   -0.0816    0.0864   -0.0334    0.0063    0.0636   -0.0038    0.0778    0.0931
  Py  C   30    0.1725   -0.1103    0.0416   -0.0116   -0.1524   -0.0054    0.0639    0.0185
  Pz  C   30    0.0015   -0.0019    0.0046   -0.0006   -0.0090   -0.0004    0.0042    0.0039


   Root No.      73        74        75        76        77        78        79        80

                73 ????   74 ????   10 b1      9 b2      8 b3     11 b1     12 b1      9 b3  

                 9.378     9.599    10.152    10.615    11.064    11.683    11.950    12.188
  
  S   C    1    0.0444    0.0833   -0.0636   -0.0714    0.0394    0.0188    0.0082    0.0000
  Px  C    1    0.0983    0.2428    0.0337   -0.2111   -0.1295    0.0839   -0.2054   -0.1937
  Py  C    1    0.0962    0.1108   -0.2195   -0.0581    0.1838   -0.0111    0.1518    0.1292
  Pz  C    1    0.0112    0.0203   -0.0112   -0.0154    0.0037    0.0047   -0.0031   -0.0041
  S   C    2   -0.0335   -0.0981   -0.0696    0.0470    0.0880    0.0144    0.0477    0.0257
  Px  C    2    0.1067    0.2502   -0.0437   -0.2349   -0.0367    0.1195   -0.1678   -0.1862
  Py  C    2   -0.0890   -0.2462   -0.2178    0.0098    0.2108    0.1270    0.0094   -0.0577
  Pz  C    2    0.0053    0.0132    0.0014   -0.0105   -0.0054    0.0036   -0.0085   -0.0078
  S   C    3   -0.0148   -0.0545   -0.0161    0.0540    0.0373   -0.0039    0.0227    0.0148
  Px  C    3   -0.0304   -0.1873   -0.2416   -0.0059   -0.0259   -0.2329    0.0124    0.1182
  Py  C    3   -0.0254   -0.0712   -0.2003   -0.0712    0.3068    0.3524   -0.0581   -0.2145
  Pz  C    3    0.0005    0.0017   -0.0012   -0.0027    0.0031    0.0060   -0.0012   -0.0040
  S   C    4   -0.0076   -0.0504    0.0094    0.0529   -0.0226   -0.0001   -0.0207   -0.0169
  Px  C    4   -0.1568   -0.1214    0.2821   -0.1173   -0.2345   -0.1260    0.0442    0.1374
  Py  C    4   -0.1082   -0.1388    0.1037   -0.0156    0.1976    0.4097   -0.0382   -0.2055
  Pz  C    4   -0.0029   -0.0016    0.0049   -0.0028   -0.0025   -0.0007    0.0013    0.0018
  S   C    5   -0.0552   -0.0991    0.0894    0.0388   -0.0910   -0.0225   -0.0452   -0.0218
  Px  C    5   -0.1082   -0.0497    0.1945   -0.1532   -0.1529   -0.1060    0.0761    0.1564
  Py  C    5    0.1574    0.3248   -0.1502   -0.1856    0.1412    0.0104    0.1345    0.1251
  Pz  C    5   -0.0025    0.0014    0.0049   -0.0073   -0.0032   -0.0034    0.0041    0.0064
  S   C    6    0.0170    0.0789    0.0383   -0.0761   -0.0354    0.0047   -0.0116    0.0003
  Px  C    6    0.0296    0.1992    0.1219   -0.1703   -0.0880    0.0174   -0.0357   -0.0145
  Py  C    6    0.0829    0.1721   -0.1887   -0.1440    0.2116   -0.0317    0.2469    0.2329
  Pz  C    6    0.0024    0.0065   -0.0023   -0.0053    0.0032   -0.0007    0.0050    0.0051
  S   C    7    0.0104    0.0523    0.0821    0.0601    0.0652    0.0525    0.0568   -0.0177
  Px  C    7   -0.0384   -0.1810   -0.1705    0.0475    0.0256   -0.1974    0.0738    0.1192
  Py  C    7    0.0373    0.0828    0.1249    0.1861    0.1585    0.0045    0.1726    0.0048
  Pz  C    7    0.0015    0.0069    0.0075    0.0006    0.0009    0.0060    0.0001   -0.0029
  S   C    8    0.0880    0.0419   -0.0599    0.0797   -0.0575   -0.0573   -0.0519    0.0048
  Px  C    8    0.1830   -0.0291    0.0186    0.1990   -0.1171    0.1256   -0.1811   -0.0814
  Py  C    8   -0.2619   -0.1945    0.1833   -0.1250    0.0869    0.2181    0.0305   -0.0872
  Pz  C    8    0.0063    0.0031   -0.0028    0.0030   -0.0028   -0.0019   -0.0022    0.0004
  S   C    9   -0.0012    0.0335   -0.0398    0.0179   -0.0191   -0.0300   -0.0291   -0.0083
  Px  C    9    0.2566    0.0068   -0.0285    0.2580   -0.1940    0.0654   -0.2263   -0.0770
  Py  C    9    0.1263    0.0586    0.1209    0.1236   -0.0412   -0.0257    0.3974   -0.1110
  Pz  C    9    0.0033    0.0011    0.0039    0.0045   -0.0012   -0.0012    0.0139   -0.0045
  S   C   10   -0.0073    0.0375    0.0422    0.0049    0.0143    0.0164    0.0267    0.0009
  Px  C   10   -0.0034    0.0476   -0.0408    0.2379    0.1689   -0.0062   -0.2178    0.1019
  Py  C   10    0.0086   -0.0079    0.1167    0.1141    0.1654   -0.0522    0.4082   -0.0060
  Pz  C   10   -0.0002    0.0034    0.0043    0.0071    0.0060    0.0002    0.0040    0.0029
  S   C   11   -0.0223    0.0222    0.0738   -0.0895   -0.0277    0.0501    0.0712    0.0140
  Px  C   11   -0.0056    0.0720    0.0229    0.1979    0.1349    0.0448   -0.1588    0.1207
  Py  C   11   -0.0879    0.0921    0.1692   -0.1135    0.0068    0.1230    0.0723    0.1173
  Pz  C   11    0.0020    0.0004   -0.0054    0.0125    0.0068   -0.0022   -0.0104    0.0025
  S   H   12   -0.0354    0.0207    0.0713   -0.0964   -0.0353    0.0530    0.0803    0.0277
  S   C   13   -0.1226    0.0105   -0.0836   -0.0815    0.0161   -0.0613   -0.0689   -0.0073
  Px  C   13   -0.1807    0.1038   -0.1576    0.0327   -0.0840   -0.1672    0.0231   -0.1952
  Py  C   13    0.2979    0.0170    0.1227    0.2250   -0.0778    0.0414    0.1732   -0.0578
  Pz  C   13    0.0168    0.0003    0.0068    0.0107   -0.0032    0.0025    0.0079   -0.0018
  S   H   14    0.0281    0.0940    0.1081    0.0606    0.0671    0.0643    0.0619   -0.0341
  S   H   15    0.0800    0.1330   -0.1015   -0.0975    0.0523    0.0239    0.0100    0.0018
  S   H   16   -0.0765   -0.1960   -0.0956    0.0719    0.1209    0.0359    0.0535    0.0203
  S   H   17   -0.1086   -0.1692    0.1312    0.0422   -0.1170   -0.0415   -0.0430   -0.0119
  S   H   18    0.0153    0.1198    0.0735   -0.1029   -0.0518    0.0063   -0.0175   -0.0044
  S   H   19    0.1855    0.0923   -0.0877    0.1060   -0.0792   -0.0801   -0.0670    0.0266
  S   H   20   -0.1940    0.0204   -0.1029   -0.0891    0.0168   -0.0700   -0.0842   -0.0292
  S   C   21    0.0763   -0.0739   -0.0552   -0.0356   -0.0818    0.0489    0.0545   -0.0178
  Px  C   21   -0.0429    0.0314    0.1438   -0.1872    0.1305   -0.1596    0.0343   -0.2158
  Py  C   21    0.2702   -0.2469   -0.0833   -0.1949   -0.1366    0.0480    0.1414   -0.1390
  Pz  C   21    0.0197   -0.0175   -0.0062   -0.0117   -0.0091    0.0038    0.0080   -0.0068
  S   C   22   -0.0768    0.0599   -0.0446    0.0874   -0.0461    0.0325    0.0246   -0.0036
  Px  C   22    0.2179   -0.1510    0.1201   -0.1897    0.1040   -0.0651   -0.0522    0.0146
  Py  C   22    0.1077   -0.1335   -0.1262   -0.1461   -0.2157    0.0646    0.2543   -0.2768
  Pz  C   22   -0.0044    0.0011   -0.0082    0.0014   -0.0108    0.0045    0.0106   -0.0101
  S   C   23   -0.0437    0.0618    0.0498    0.0695    0.0479   -0.0115   -0.0206    0.0067
  Px  C   23    0.1632   -0.1740    0.0288   -0.2187    0.1249   -0.0777   -0.2025    0.2228
  Py  C   23    0.0231   -0.0800   -0.1766   -0.0457   -0.2044    0.0744    0.1734   -0.1574
  Pz  C   23    0.0014   -0.0030   -0.0054   -0.0027   -0.0065    0.0019    0.0056   -0.0055
  S   C   24    0.0847   -0.0583    0.0595   -0.0407    0.0904   -0.0583   -0.0583    0.0145
  Px  C   24    0.1654   -0.1886   -0.0265   -0.2441    0.0339   -0.0208   -0.1460    0.2203
  Py  C   24   -0.2644    0.1259   -0.1869   -0.0156   -0.2114    0.1441    0.0522    0.1041
  Pz  C   24   -0.0084    0.0016   -0.0093   -0.0057   -0.0092    0.0063   -0.0007    0.0095
  S   H   25    0.1462   -0.1296   -0.0828   -0.0374   -0.1053    0.0730    0.0599   -0.0025
  S   H   26   -0.1270    0.0884   -0.0681    0.1107   -0.0570    0.0379    0.0266   -0.0035
  S   H   27   -0.0590    0.0946    0.0826    0.0915    0.0665   -0.0169   -0.0260    0.0092
  S   H   28    0.1815   -0.1158    0.0855   -0.0582    0.1151   -0.0816   -0.0666    0.0041
  S   C   29    0.0307   -0.0408   -0.0119   -0.0613   -0.0406    0.0245    0.0268   -0.0041
  Px  C   29   -0.0889    0.0901    0.2114   -0.1440    0.2195   -0.2040   -0.0114   -0.1978
  Py  C   29   -0.0316    0.0830    0.1355    0.0000   -0.0668    0.3318    0.0624    0.3144
  Pz  C   29   -0.0013    0.0015    0.0039   -0.0027    0.0001    0.0024    0.0026    0.0012
  S   C   30    0.0084   -0.0351   -0.0072   -0.0633    0.0247   -0.0234   -0.0258    0.0131
  Px  C   30   -0.2516    0.0973   -0.2412   -0.0375   -0.0809   -0.2154   -0.0428   -0.1843
  Py  C   30   -0.0886    0.0033   -0.1299   -0.0808   -0.2445    0.3242    0.0460    0.3300
  Pz  C   30   -0.0081    0.0011   -0.0095   -0.0048   -0.0103    0.0091    0.0002    0.0108


   Root No.      81        82        83        84

                12 a      13 b1     10 b3     10 b2  

                12.549    12.837    13.263    14.574
  
  S   C    1    0.0683   -0.0054   -0.0102    0.0368
  Px  C    1    0.1907   -0.2529   -0.1786    0.0970
  Py  C    1    0.0421    0.1579    0.0962    0.0216
  Pz  C    1    0.0125   -0.0058   -0.0047    0.0060
  S   C    2   -0.0003    0.0328    0.0202    0.0198
  Px  C    2    0.2381   -0.2439   -0.1750    0.1365
  Py  C    2    0.1236   -0.0516   -0.0343    0.1052
  Pz  C    2    0.0092   -0.0099   -0.0072    0.0047
  S   C    3   -0.0045   -0.0010   -0.0144    0.0317
  Px  C    3    0.2692   -0.1267   -0.2472    0.2310
  Py  C    3    0.1008   -0.0969    0.0123    0.0852
  Pz  C    3   -0.0002   -0.0003    0.0027   -0.0018
  S   C    4   -0.0023   -0.0037    0.0076    0.0290
  Px  C    4    0.2893    0.1757    0.0936    0.2027
  Py  C    4    0.0974    0.0750    0.2051    0.1107
  Pz  C    4    0.0049    0.0026    0.0018    0.0028
  S   C    5    0.0149   -0.0289   -0.0210    0.0244
  Px  C    5    0.2748    0.1960    0.1006    0.1664
  Py  C    5    0.1186    0.1802    0.1142    0.0520
  Pz  C    5    0.0099    0.0080    0.0042    0.0055
  S   C    6    0.0729    0.0092    0.0036    0.0371
  Px  C    6    0.1443    0.0003   -0.0034    0.0703
  Py  C    6    0.1266    0.3055    0.1906    0.0613
  Pz  C    6    0.0050    0.0070    0.0043    0.0026
  S   C    7   -0.0708   -0.0080    0.0211    0.0076
  Px  C    7    0.2235   -0.1350   -0.2420    0.2522
  Py  C    7   -0.0178   -0.1200   -0.0823    0.1515
  Pz  C    7   -0.0065    0.0022    0.0049   -0.0038
  S   C    8   -0.0553    0.0032   -0.0090    0.0136
  Px  C    8    0.0957    0.1934    0.1979    0.2468
  Py  C    8    0.1757    0.0682    0.1419    0.1137
  Pz  C    8   -0.0012    0.0011    0.0006    0.0005
  S   C    9   -0.0580   -0.0080    0.0124    0.0177
  Px  C    9    0.0318    0.1819    0.1969    0.2646
  Py  C    9   -0.0099   -0.2819    0.1782    0.1548
  Pz  C    9    0.0001   -0.0098    0.0067    0.0054
  S   C   10   -0.0642    0.0052   -0.0024    0.0127
  Px  C   10   -0.0465    0.1566   -0.2372    0.2745
  Py  C   10    0.0552   -0.2954   -0.0689    0.1505
  Pz  C   10   -0.0043   -0.0012   -0.0062    0.0082
  S   C   11   -0.0688   -0.0186   -0.0023   -0.0070
  Px  C   11   -0.1260    0.1557   -0.2447    0.2829
  Py  C   11   -0.1921    0.0156   -0.1386    0.1417
  Pz  C   11   -0.0000    0.0063   -0.0074    0.0089
  S   H   12   -0.0460   -0.0368   -0.0017   -0.0071
  S   C   13   -0.0543    0.0134    0.0009   -0.0145
  Px  C   13   -0.1482   -0.0971    0.2794    0.2619
  Py  C   13    0.0240   -0.1142    0.1416    0.1658
  Pz  C   13    0.0012   -0.0051    0.0056    0.0072
  S   H   14   -0.0631   -0.0208    0.0311   -0.0045
  S   H   15    0.0779    0.0002   -0.0059    0.0367
  S   H   16   -0.0124    0.0424    0.0351    0.0077
  S   H   17    0.0188   -0.0297   -0.0274    0.0175
  S   H   18    0.0825    0.0021   -0.0019    0.0371
  S   H   19   -0.0514    0.0215   -0.0210    0.0051
  S   H   20   -0.0414    0.0338    0.0080   -0.0067
  S   C   21    0.0036    0.0189   -0.0208   -0.0249
  Px  C   21   -0.2306    0.1593   -0.1195    0.1784
  Py  C   21   -0.1202    0.1350   -0.1290    0.0556
  Pz  C   21   -0.0069    0.0069   -0.0068    0.0033
  S   C   22    0.0624    0.0023   -0.0026   -0.0404
  Px  C   22   -0.1205   -0.0117    0.0115    0.0754
  Py  C   22   -0.1332    0.2423   -0.2198    0.0660
  Pz  C   22   -0.0013    0.0090   -0.0084    0.0006
  S   C   23    0.0602    0.0034   -0.0078   -0.0393
  Px  C   23   -0.1476   -0.2173    0.2100    0.1060
  Py  C   23   -0.0532    0.1308   -0.1156    0.0250
  Pz  C   23   -0.0030    0.0041   -0.0034    0.0018
  S   C   24    0.0199   -0.0168    0.0185   -0.0290
  Px  C   24   -0.2006   -0.2147    0.2036    0.1498
  Py  C   24   -0.1560   -0.0724    0.0518    0.1323
  Pz  C   24   -0.0111   -0.0079    0.0067    0.0090
  S   H   25    0.0028    0.0200   -0.0306   -0.0164
  S   H   26    0.0663    0.0048   -0.0062   -0.0386
  S   H   27    0.0694   -0.0010   -0.0024   -0.0397
  S   H   28    0.0180   -0.0220    0.0321   -0.0175
  S   C   29   -0.0060   -0.0053    0.0126   -0.0335
  Px  C   29   -0.2311    0.1486   -0.1196    0.2165
  Py  C   29   -0.1804    0.0032   -0.2106    0.1548
  Pz  C   29   -0.0036    0.0005   -0.0027    0.0027
  S   C   30   -0.0083   -0.0028   -0.0080   -0.0293
  Px  C   30   -0.1815   -0.0878    0.2710    0.2333
  Py  C   30   -0.1794   -0.1339    0.0072    0.1269
  Pz  C   30   -0.0101   -0.0066    0.0041    0.0081


              NET ATOMIC CHARGES AND DIPOLE CONTRIBUTIONS

  ATOM NO.   TYPE          CHARGE      No. of ELECS.   s-Pop       p-Pop       
    1          C          -0.021178        4.0212     1.08797     2.93320
    2          C          -0.030996        4.0310     1.09997     2.93103
    3          C           0.008393        3.9916     1.07441     2.91720
    4          C           0.009275        3.9907     1.07545     2.91528
    5          C          -0.028070        4.0281     1.09591     2.93216
    6          C          -0.023285        4.0233     1.09165     2.93163
    7          C          -0.032926        4.0329     1.09985     2.93307
    8          C          -0.042019        4.0420     1.10485     2.93717
    9          C           0.015395        3.9846     1.05237     2.93223
   10          C           0.013440        3.9866     1.05516     2.93140
   11          C          -0.028912        4.0289     1.09596     2.93296
   12          H           0.013534        0.9865     0.98647
   13          C          -0.032729        4.0327     1.09453     2.93820
   14          H           0.027845        0.9722     0.97216
   15          H           0.020933        0.9791     0.97907
   16          H           0.029317        0.9707     0.97068
   17          H           0.028530        0.9715     0.97147
   18          H           0.020669        0.9793     0.97933
   19          H           0.030233        0.9698     0.96977
   20          H           0.013844        0.9862     0.98616
   21          C          -0.035588        4.0356     1.10956     2.92603
   22          C          -0.019290        4.0193     1.09012     2.92917
   23          C          -0.021294        4.0213     1.08990     2.93139
   24          C          -0.030197        4.0302     1.09461     2.93559
   25          H           0.025188        0.9748     0.97481
   26          H           0.023121        0.9769     0.97688
   27          H           0.014813        0.9852     0.98519
   28          H           0.030270        0.9697     0.96973
   29          C           0.010507        3.9895     1.06570     2.92379
   30          C           0.011179        3.9888     1.06183     2.92699
 DIPOLE           X         Y         Z       TOTAL
 POINT-CHG.    -0.172    -0.093    -0.045     0.200
 HYBRID         0.103     0.117    -0.178     0.237
 SUM           -0.069     0.025    -0.223     0.235


          ATOMIC ORBITAL ELECTRON POPULATIONS

     Atom    s        px        py        pz   
    1  C   1.08797   0.97460   0.95735   1.00124
    2  C   1.09997   0.97034   0.95793   1.00276
    3  C   1.07441   0.96663   0.96307   0.98750
    4  C   1.07545   0.96152   0.96766   0.98610
    5  C   1.09591   0.96778   0.95751   1.00688
    6  C   1.09165   0.94469   0.99049   0.99645
    7  C   1.09985   0.96266   0.95576   1.01466
    8  C   1.10485   0.96938   0.95109   1.01671
    9  C   1.05237   0.96978   0.98079   0.98167
   10  C   1.05516   0.97616   0.97426   0.98098
   11  C   1.09596   0.96739   0.94749   1.01808
   12  H   0.98647
   13  C   1.09453   0.96715   0.95356   1.01749
   14  H   0.97216
   15  H   0.97907
   16  H   0.97068
   17  H   0.97147
   18  H   0.97933
   19  H   0.96977
   20  H   0.98616
   21  C   1.10956   0.96472   0.95688   1.00442
   22  C   1.09012   0.93929   0.99299   0.99688
   23  C   1.08990   0.97818   0.95322   0.99998
   24  C   1.09461   0.97650   0.95313   1.00595
   25  H   0.97481
   26  H   0.97688
   27  H   0.98519
   28  H   0.96973
   29  C   1.06570   0.96058   0.97871   0.98451
   30  C   1.06183   0.97388   0.96957   0.98355

 **********************
 *                    *
 * JOB ENDED NORMALLY *
 *                    *
 **********************



 TOTAL JOB TIME:             3.23 SECONDS

 == MOPAC DONE ==


          MOPAC Job: "./tetraceneTraj/tetracene_253.mop" ended normally on Feb 15, 2023, at 11:22.

rm: cannot remove ./tetraceneTraj/tetracene_253.cim: No such file or directory
rm: cannot remove ./tetraceneTraj/tetracene_253.end: No such file or directory
rm: cannot remove ./tetraceneTraj/tetracene_253.log: No such file or directory
rm: cannot remove ./tetraceneTraj/tetracene_253.temp: No such file or directory
rm: cannot remove ./tetraceneTraj/tetracene_253.ple: No such file or directory
rm: cannot remove ./tetraceneTraj/tetracene_253.sts: No such file or directory
