 *******************************************************************************
 ** Site#:    0         For non-commercial use only    Version 20.173L 64BITS **
 *******************************************************************************
 ** Cite this program as: MOPAC2016, Version: 20.173L, James J. P. Stewart,   **
 ** Stewart Computational Chemistry, web-site: HTTP://OpenMOPAC.net.          **
 *******************************************************************************
 **                                                                           **
 **                                MOPAC2016                                  **
 **                                                                           **
 *******************************************************************************

                              INDO CALCULATION RESULTS

 *******************************************************************************
 *  CALCULATION DONE:                                Wed Feb 15 11:34:52 2023  *
 *  INDO       - The INDO Hamiltonian to be used
 *
 *
 *
 *                 CHARGE ON SYSTEM = 0
 *
 *
 *
 *  C.I.=(N,M) - 3 DOUBLY FILLED LEVELS USED IN A C.I. INVOLVING 6 M.O.'S
 *  T=         - A TIME OF 172800.0 SECONDS REQUESTED
 *  DUMP=N     - RESTART FILE WRITTEN EVERY 7200.0 SECONDS REQUESTED
 *  RELSCF     - DEFAULT SCF CRITERION MULTIPLIED BY 0.0000
 *              (DEFAULT SCF CRITERION = 0.00010)
 *  ALLVEC     - PRINT ALL EIGENVECTORS
 **********
 *  WARNING: Specified print options may not behave as expected with INDO
 **********
 *******************************************************************************
INDO C.I.=(6,3) AllVEC CHARGE=0 RELSCF=0.000001


   ATOM   CHEMICAL          X               Y               Z
  NUMBER   SYMBOL      (ANGSTROMS)     (ANGSTROMS)     (ANGSTROMS)
 
     1       C         18.48797380  *  19.51944156  *  22.35191122  *
     2       C         19.88894766  *  19.43516815  *  22.29295547  *
     3       C         20.68026407  *  20.64970806  *  22.40614060  *
     4       C         19.96959299  *  21.94818916  *  22.44858572  *
     5       C         18.55652350  *  21.95793759  *  22.35402423  *
     6       C         17.78332061  *  20.78035254  *  22.32368711  *
     7       C         22.09491657  *  20.60214056  *  22.53218569  *
     8       C         20.74741634  *  23.12641352  *  22.57658120  *
     9       C         22.16038007  *  23.13186453  *  22.59191275  *
    10       C         22.88734467  *  21.81815780  *  22.58448351  *
    11       C         24.30070793  *  21.84696327  *  22.66523382  *
    12       H         24.85204713  *  20.88427891  *  22.50775894  *
    13       C         22.89443272  *  24.37691472  *  22.58004364  *
    14       H         22.63156619  *  19.66630815  *  22.53361737  *
    15       H         17.87722783  *  18.56780030  *  22.25369662  *
    16       H         20.31764533  *  18.44268385  *  22.36183805  *
    17       H         18.08655857  *  22.93101939  *  22.30622748  *
    18       H         16.72239121  *  20.64482127  *  22.21357629  *
    19       H         20.26873693  *  24.10099126  *  22.56497447  *
    20       H         22.37364451  *  25.33500506  *  22.44331133  *
    21       C         26.50169960  *  23.07450000  *  22.48493214  *
    22       C         27.15903903  *  24.28366355  *  22.48169119  *
    23       C         26.46031094  *  25.54605228  *  22.57039626  *
    24       C         25.05477369  *  25.54803468  *  22.66426836  *
    25       H         27.06957120  *  22.11879230  *  22.54716302  *
    26       H         28.24064759  *  24.25683730  *  22.47421129  *
    27       H         27.02460372  *  26.50694674  *  22.61036500  *
    28       H         24.44068266  *  26.43377564  *  22.81221032  *
    29       C         25.06809116  *  23.03794082  *  22.53332801  *
    30       C         24.31221695  *  24.32585862  *  22.58880135  *
 


          CARTESIAN COORDINATES 

    NO.       ATOM           X           Y           Z

     1         C         18.4880     19.5194     22.3519
     2         C         19.8889     19.4352     22.2930
     3         C         20.6803     20.6497     22.4061
     4         C         19.9696     21.9482     22.4486
     5         C         18.5565     21.9579     22.3540
     6         C         17.7833     20.7804     22.3237
     7         C         22.0949     20.6021     22.5322
     8         C         20.7474     23.1264     22.5766
     9         C         22.1604     23.1319     22.5919
    10         C         22.8873     21.8182     22.5845
    11         C         24.3007     21.8470     22.6652
    12         H         24.8520     20.8843     22.5078
    13         C         22.8944     24.3769     22.5800
    14         H         22.6316     19.6663     22.5336
    15         H         17.8772     18.5678     22.2537
    16         H         20.3176     18.4427     22.3618
    17         H         18.0866     22.9310     22.3062
    18         H         16.7224     20.6448     22.2136
    19         H         20.2687     24.1010     22.5650
    20         H         22.3736     25.3350     22.4433
    21         C         26.5017     23.0745     22.4849
    22         C         27.1590     24.2837     22.4817
    23         C         26.4603     25.5461     22.5704
    24         C         25.0548     25.5480     22.6643
    25         H         27.0696     22.1188     22.5472
    26         H         28.2406     24.2568     22.4742
    27         H         27.0246     26.5069     22.6104
    28         H         24.4407     26.4338     22.8122
    29         C         25.0681     23.0379     22.5333
    30         C         24.3122     24.3259     22.5888

           Empirical Formula: C18 H12  =    30 atoms



      MOLECULAR POINT GROUP   :   C1  


      RHF CALCULATION, NO. OF DOUBLY OCCUPIED LEVELS = 42

 WARNING: INDO only performs single-point calculations
  SCF CRITERION =    0.1000E-09

 Summary of symmetry occupancy in each shell:

 SHELL     
    1   42
    v   42
 TOTAL  84




    ROOT NO.    1           2           3           4           5           6

           -44.38728   -42.98290   -40.27271   -36.74857   -35.79009   -34.26854
  
  
  S  C   1   0.13028     0.21553    -0.26044    -0.25683     0.06119     0.10607
 PX  C   1   0.03386     0.04960    -0.04103    -0.00679     0.04386     0.08563
 PY  C   1   0.04697     0.07481    -0.08140    -0.06283    -0.02049    -0.04800
 PZ  C   1  -0.00155    -0.00308     0.00508     0.00704    -0.00091    -0.00186
  
  S  C   2   0.15757     0.23045    -0.20734    -0.11581     0.16824     0.28402
 PX  C   2  -0.00704    -0.02861     0.07155     0.10680     0.03613     0.04324
 PY  C   2   0.06319     0.08563    -0.05857    -0.00150     0.01695     0.01876
 PZ  C   2   0.00768     0.01044    -0.00721    -0.00064     0.00870     0.01389
  
  S  C   3   0.26916     0.29034    -0.05837     0.16804     0.17160     0.23437
 PX  C   3  -0.00529    -0.05789     0.13768     0.12814     0.07306     0.06403
 PY  C   3   0.05250     0.02895     0.06018     0.10108    -0.08510    -0.12817
 PZ  C   3   0.00546     0.00207     0.00937     0.01402     0.00270     0.00145
  
  S  C   4   0.27821     0.30132    -0.06242     0.18261    -0.16245    -0.20091
 PX  C   4   0.03866    -0.01175     0.13032     0.15353     0.03869     0.09261
 PY  C   4  -0.02781    -0.05870     0.08212     0.06258    -0.11053    -0.12327
 PZ  C   4   0.00049    -0.00343     0.01079     0.01157    -0.00224    -0.00026
  
  S  C   5   0.16888     0.24499    -0.21449    -0.10022    -0.16699    -0.28548
 PX  C   5   0.05299     0.06002    -0.00903     0.06556    -0.03735    -0.03559
 PY  C   5  -0.03863    -0.06904     0.09264     0.09524    -0.03043    -0.02968
 PZ  C   5   0.00302     0.00331     0.00005     0.00491    -0.00384    -0.00464
  
  S  C   6   0.12928     0.21415    -0.25939    -0.25362    -0.05098    -0.11937
 PX  C   6   0.05835     0.09077    -0.09204    -0.05717    -0.00763    -0.01380
 PY  C   6   0.00216    -0.00024     0.01151     0.03344    -0.04512    -0.08500
 PZ  C   6   0.00139     0.00190    -0.00107     0.00112    -0.00084    -0.00126
  
  S  C   7   0.22250     0.13466     0.15517     0.21570     0.29879     0.22626
 PX  C   7  -0.03295    -0.06759     0.03812    -0.07779     0.01917    -0.07648
 PY  C   7   0.07205     0.02050     0.08552     0.06046     0.00711    -0.03595
 PZ  C   7  -0.00294    -0.00452     0.00221    -0.00513    -0.00385    -0.00876
  
  S  C   8   0.24138     0.14466     0.16867     0.24160    -0.28927    -0.19314
 PX  C   8   0.04344    -0.02471     0.09963     0.00214    -0.00715     0.07289
 PY  C   8  -0.06598    -0.06964    -0.01166    -0.10090    -0.02634     0.02365
 PZ  C   8  -0.00692    -0.00694    -0.00061    -0.00864     0.00713     0.00863
  
  S  C   9   0.31392     0.00880     0.31940     0.00201    -0.20015    -0.02440
 PX  C   9   0.02019    -0.08342     0.02003    -0.19293     0.07471     0.05165
 PY  C   9  -0.04152    -0.04648    -0.03850    -0.10146    -0.13614     0.01436
 PZ  C   9  -0.00382    -0.00207    -0.00267    -0.00396     0.00316     0.00084
  
  S  C  10   0.30418     0.00556     0.31050    -0.01086     0.23735     0.01263
 PX  C  10  -0.02424    -0.08204    -0.02178    -0.18682     0.06990    -0.06930
 PY  C  10   0.04816    -0.04277     0.04621    -0.09934    -0.11524    -0.05278
 PZ  C  10  -0.00129    -0.00275     0.00017    -0.00660    -0.00111    -0.00251
  
  S  C  11   0.22876    -0.12906     0.16399    -0.23168     0.31142    -0.17976
 PX  C  11  -0.04304    -0.02417    -0.09477     0.01211    -0.01211    -0.07407
 PY  C  11   0.06730    -0.06599     0.01647    -0.09715    -0.01092    -0.04754
 PZ  C  11  -0.01239     0.00709    -0.00895     0.01346    -0.01961     0.01230
  
  S  H  12   0.06968    -0.03881     0.04656    -0.06254     0.15476    -0.08442
  
  S  C  13   0.23276    -0.12944     0.16522    -0.22949    -0.31061     0.15570
 PX  C  13   0.03559    -0.07198    -0.03610    -0.08802     0.00716     0.08239
 PY  C  13  -0.07180     0.01306    -0.09046     0.05746    -0.00615     0.05529
 PZ  C  13  -0.00132    -0.00003    -0.00120     0.00006     0.00365    -0.00047
  
  S  H  14   0.06936     0.03959     0.04735     0.05699     0.15181     0.10775
  
  S  H  15   0.03217     0.05604    -0.07628    -0.09155     0.02519     0.04669
  
  S  H  16   0.04654     0.06701    -0.05876    -0.03323     0.08356     0.14078
  
  S  H  17   0.05344     0.07441    -0.05868    -0.01811    -0.09048    -0.14771
  
  S  H  18   0.03406     0.05949    -0.08141    -0.09744    -0.01837    -0.04655
  
  S  H  19   0.07830     0.04379     0.05375     0.06817    -0.15666    -0.10038
  
  S  H  20   0.07305    -0.03946     0.04797    -0.06220    -0.15953     0.08136
  
  S  C  21   0.16776    -0.24177    -0.21045     0.12904     0.19058    -0.27216
 PX  C  21  -0.05128     0.05746     0.00967     0.05733    -0.03592     0.03198
 PY  C  21   0.04261    -0.07370    -0.09257     0.09599    -0.02256     0.02125
 PZ  C  21   0.00456    -0.00623    -0.00428     0.00046     0.00390    -0.00502
  
  S  C  22   0.13965    -0.22630    -0.25973     0.26282     0.07387    -0.11257
 PX  C  22  -0.06028     0.09135     0.08687    -0.05427    -0.00494     0.00094
 PY  C  22  -0.00659     0.00734    -0.00059     0.01534    -0.05692     0.09729
 PZ  C  22   0.00398    -0.00634    -0.00683     0.00595    -0.00031     0.00123
  
  S  C  23   0.13494    -0.21744    -0.24590     0.23765    -0.06498     0.12419
 PX  C  23  -0.03493     0.04967     0.03771    -0.00108     0.05324    -0.08592
 PY  C  23  -0.05088     0.07941     0.08233    -0.06736    -0.02279     0.03796
 PZ  C  23   0.00040    -0.00050    -0.00017    -0.00078    -0.00363     0.00646
  
  S  C  24   0.17229    -0.24232    -0.19546     0.08275    -0.20378     0.29505
 PX  C  24   0.00498    -0.02773    -0.07196     0.11314     0.05239    -0.04153
 PY  C  24  -0.06709     0.08772     0.05409     0.00338     0.02015    -0.01820
 PZ  C  24  -0.00550     0.00816     0.00759    -0.00500     0.00187    -0.00240
  
  S  H  25   0.04881    -0.06861    -0.05675     0.03331     0.09395    -0.13257
  
  S  H  26   0.03728    -0.06348    -0.08159     0.09943     0.03383    -0.05551
  
  S  H  27   0.03330    -0.05633    -0.07127     0.08293    -0.02698     0.05360
  
  S  H  28   0.05518    -0.07331    -0.05017     0.00703    -0.11045     0.15093
  
  S  C  29   0.27339    -0.28830    -0.05375    -0.16342     0.18957    -0.21415
 PX  C  29  -0.03901    -0.01330    -0.12802     0.16100     0.03658    -0.07094
 PY  C  29   0.03302    -0.06454    -0.08205     0.05930    -0.11348     0.10725
 PZ  C  29   0.00642    -0.00572     0.00239    -0.00944     0.00233    -0.00195
  
  S  C  30   0.28136    -0.29239    -0.04441    -0.18871    -0.18861     0.19733
 PX  C  30   0.00497    -0.06040    -0.13702     0.13212     0.07935    -0.04297
 PY  C  30  -0.04470     0.01595    -0.06591     0.09014    -0.11224     0.14784
 PZ  C  30  -0.00054     0.00005    -0.00067     0.00006    -0.00299     0.00550




    ROOT NO.    7           8           9          10          11          12

           -31.84391   -31.34669   -28.70696   -28.36727   -26.93625   -25.98779
  
  
  S  C   1  -0.23320     0.20391     0.16156    -0.23845    -0.01186    -0.21470
 PX  C   1  -0.07814    -0.12958     0.13161     0.16120    -0.04600    -0.06701
 PY  C   1   0.06076     0.05354    -0.10774     0.00570     0.08834     0.11320
 PZ  C   1   0.00743    -0.00932    -0.00574     0.01197     0.00146     0.00963
  
  S  C   2  -0.26684    -0.13920     0.20577     0.12043    -0.13196    -0.02762
 PX  C   2   0.06338    -0.11634    -0.11947     0.09658    -0.03061     0.21639
 PY  C   2   0.03530    -0.06715    -0.06441     0.08473     0.10759     0.09944
 PZ  C   2  -0.00806    -0.01166     0.00324     0.00991    -0.00376     0.00696
  
  S  C   3  -0.01217    -0.25484    -0.09502     0.10570     0.12751     0.17686
 PX  C   3   0.04263     0.05904    -0.14875    -0.13817    -0.06470     0.09242
 PY  C   3   0.09798     0.02295    -0.00142    -0.09375     0.17655    -0.14646
 PZ  C   3   0.00580     0.00235    -0.00916    -0.01384     0.00565    -0.00195
  
  S  C   4   0.16372    -0.21535     0.10554     0.08539     0.07827    -0.18950
 PX  C   4  -0.10812    -0.01118     0.03795    -0.18047     0.12461     0.00132
 PY  C   4   0.00349     0.03362     0.09956    -0.09398    -0.18371    -0.08915
 PZ  C   4  -0.00598     0.00197     0.00774    -0.01784    -0.00143    -0.00624
  
  S  C   5   0.28306     0.02687    -0.14737     0.17189    -0.11370     0.07367
 PX  C   5   0.02560    -0.15025     0.13448     0.10320     0.01606    -0.18641
 PY  C   5   0.01897    -0.07682     0.07335     0.02728    -0.12452    -0.08120
 PZ  C   5   0.00349    -0.00886     0.00827     0.00527    -0.00141    -0.01245
  
  S  C   6   0.06747     0.31968    -0.22718    -0.21538     0.04983     0.19048
 PX  C   6   0.01256    -0.02814     0.02855     0.09647     0.02867    -0.04784
 PY  C   6   0.13600    -0.05669    -0.10078     0.15972    -0.04923     0.12779
 PZ  C   6   0.00272    -0.00588     0.00206     0.00896     0.00080    -0.00324
  
  S  C   7   0.14581     0.06082    -0.26080    -0.08702    -0.17063     0.07375
 PX  C   7   0.07721     0.16682     0.04146    -0.00573    -0.14311    -0.17706
 PY  C   7   0.04061     0.09766     0.01248    -0.08259     0.13707    -0.14581
 PZ  C   7   0.00347     0.01335     0.00668    -0.00290    -0.00169    -0.01947
  
  S  C   8  -0.15236    -0.02500     0.21034    -0.17277    -0.16782     0.00533
 PX  C   8  -0.16596     0.11914    -0.04872    -0.07008     0.09121     0.16699
 PY  C   8  -0.09790     0.05293    -0.01522     0.04388    -0.17385     0.15155
 PZ  C   8  -0.00651     0.00868    -0.00578    -0.00016     0.00206     0.01128
  
  S  C   9  -0.28030     0.18006     0.01655     0.00846     0.10693     0.14539
 PX  C   9   0.06772     0.02243    -0.08009     0.20234     0.11676    -0.06611
 PY  C   9  -0.12800    -0.06167    -0.04577     0.10268    -0.18970     0.16064
 PZ  C   9   0.00198     0.00212     0.00082     0.00236     0.00096    -0.00123
  
  S  C  10   0.14802     0.29352     0.00211     0.02515     0.04358    -0.20385
 PX  C  10   0.07299    -0.00468     0.12873     0.15902    -0.12829    -0.03165
 PY  C  10  -0.12578    -0.01460     0.08446     0.08516     0.22897     0.05699
 PZ  C  10   0.00042     0.00517     0.00632     0.00699     0.00144    -0.00734
  
  S  C  11   0.16187     0.03528     0.23993     0.08241    -0.17810     0.01746
 PX  C  11  -0.06776    -0.17796     0.03382    -0.11127    -0.04917     0.19040
 PY  C  11  -0.04242    -0.09380     0.04095     0.02155     0.18954     0.08791
 PZ  C  11  -0.00865     0.00110    -0.01393    -0.00253     0.01460    -0.00605
  
  S  H  12   0.07829     0.01209     0.10019    -0.00298    -0.21116     0.02128
  
  S  C  13  -0.17327    -0.03591    -0.22659     0.16912    -0.15148     0.02482
 PX  C  13   0.15143    -0.10148    -0.06796     0.00088     0.09440    -0.20432
 PY  C  13   0.09105    -0.06096    -0.05003    -0.08706    -0.15945    -0.09755
 PZ  C  13   0.00432     0.00085     0.00440    -0.00160     0.00715    -0.00292
  
  S  H  14   0.07329     0.02818    -0.12000    -0.00388    -0.21042     0.06145
  
  S  H  15  -0.11583     0.11097     0.08968    -0.16884    -0.03473    -0.14230
  
  S  H  16  -0.13455    -0.06082     0.10799     0.03908    -0.13806    -0.01595
  
  S  H  17   0.14026     0.01080    -0.06563     0.07333    -0.13652     0.04360
  
  S  H  18   0.01819     0.17950    -0.12500    -0.17709     0.01302     0.11751
  
  S  H  19  -0.08241    -0.01556     0.10314    -0.04255    -0.21411     0.04396
  
  S  H  20  -0.07908    -0.02044    -0.11467     0.03783    -0.19766     0.02062
  
  S  C  21  -0.24118    -0.12157    -0.20520    -0.11252    -0.12150    -0.04912
 PX  C  21  -0.06406     0.12546    -0.11865     0.16474    -0.05396    -0.18734
 PY  C  21  -0.03794     0.07531    -0.06152     0.06413     0.09500    -0.09634
 PZ  C  21  -0.00111    -0.00539     0.00280    -0.00598    -0.00056     0.00688
  
  S  C  22  -0.21563     0.20684    -0.15382     0.27946     0.00666    -0.17208
 PX  C  22  -0.01699     0.02147    -0.03510     0.10227    -0.05003    -0.07185
 PY  C  22   0.10101     0.11611     0.17965     0.10847     0.07222     0.13473
 PZ  C  22   0.00127     0.00545     0.00631     0.00289     0.00272     0.00636
  
  S  C  23   0.09164     0.29702     0.26693     0.19842     0.03530     0.21222
 PX  C  23  -0.11641     0.04699    -0.07499     0.17610     0.02707    -0.04864
 PY  C  23   0.06320    -0.00967     0.08364    -0.01673    -0.06161     0.08993
 PZ  C  23   0.00941     0.00025     0.01112    -0.00781    -0.00495     0.00957
  
  S  C  24   0.27039     0.03623     0.13858    -0.16049    -0.11954     0.00421
 PX  C  24  -0.00857     0.13813     0.17484     0.06842     0.08681     0.19805
 PY  C  24  -0.00880     0.07418     0.07562     0.07043    -0.08489     0.08513
 PZ  C  24  -0.00097    -0.00143    -0.00077     0.00101    -0.00819    -0.00213
  
  S  H  25  -0.11444    -0.05894    -0.10225    -0.03935    -0.13148    -0.03171
  
  S  H  26  -0.11702     0.11255    -0.10040     0.19839    -0.02751    -0.13450
  
  S  H  27   0.04203     0.15198     0.15117     0.14023    -0.00544     0.13904
  
  S  H  28   0.12865     0.00764     0.04224    -0.06761    -0.14079    -0.02400
  
  S  C  29  -0.00252    -0.26120     0.09834    -0.15624     0.10316     0.17793
 PX  C  29  -0.09598    -0.03694    -0.08671    -0.15480    -0.11685     0.03988
 PY  C  29   0.00189    -0.01662    -0.11339    -0.05250     0.16159    -0.09789
 PZ  C  29   0.00511    -0.00556     0.01003     0.00164     0.00768     0.00540
  
  S  C  30   0.12790    -0.20036    -0.12974    -0.08194     0.09591    -0.16127
 PX  C  30   0.06910    -0.01400     0.12233    -0.18126     0.07548     0.06477
 PY  C  30   0.08567     0.03193    -0.04954    -0.08558    -0.19614    -0.11132
 PZ  C  30   0.00655     0.00029     0.00251    -0.00406    -0.00540    -0.00472




    ROOT NO.   13          14          15          16          17          18

           -25.25755   -24.03053   -22.77890   -21.59180   -20.53247   -19.40928
  
  
  S  C   1   0.00290    -0.11092    -0.02637     0.18244    -0.04465     0.05268
 PX  C   1   0.04162     0.23053    -0.00156    -0.00621     0.19792     0.13440
 PY  C   1  -0.14158     0.02356    -0.18050    -0.12650    -0.09188     0.15749
 PZ  C   1  -0.00275     0.00728    -0.00445    -0.00881    -0.00107     0.00740
  
  S  C   2   0.15765     0.14238     0.12153    -0.11960     0.09669    -0.02965
 PX  C   2   0.05031    -0.06050     0.07516    -0.19338    -0.12668    -0.15777
 PY  C   2  -0.17801     0.01894    -0.20380    -0.08752    -0.13716     0.08693
 PZ  C   2   0.00403     0.00428     0.00222    -0.00873    -0.00172     0.00240
  
  S  C   3  -0.13575    -0.09710    -0.00659    -0.10376    -0.05645    -0.13802
 PX  C   3   0.13967    -0.15362     0.16203     0.09463     0.00504     0.01057
 PY  C   3  -0.17881    -0.05748    -0.03072     0.15365     0.13067    -0.06498
 PZ  C   3   0.00013    -0.01410     0.00986     0.01580     0.00846     0.00482
  
  S  C   4  -0.10388    -0.11468    -0.03696     0.10450    -0.08045    -0.13304
 PX  C   4  -0.10612    -0.14651     0.06336    -0.13728     0.11843    -0.08248
 PY  C   4   0.22319    -0.11701     0.13163    -0.02036    -0.07955     0.02638
 PZ  C   4   0.00554    -0.01711     0.01064    -0.01224     0.00173     0.00675
  
  S  C   5   0.17510     0.17183     0.13107     0.09331     0.11141     0.02064
 PX  C   5  -0.07866    -0.04043    -0.15407     0.15790    -0.22033    -0.01091
 PY  C   5   0.17468    -0.06902     0.16794     0.08894    -0.05359    -0.16400
 PZ  C   5  -0.00184    -0.00531    -0.00871     0.00899    -0.01689     0.00559
  
  S  C   6  -0.02862    -0.10564     0.02130    -0.16652    -0.00772    -0.01989
 PX  C   6  -0.07276     0.16177    -0.15848     0.10123     0.04250     0.27464
 PY  C   6   0.09691     0.20130     0.12013    -0.06320     0.24916     0.02869
 PZ  C   6  -0.00351     0.00970    -0.01016     0.00771    -0.00056     0.02062
  
  S  C   7   0.14108    -0.09630    -0.06671     0.19671    -0.05488     0.17170
 PX  C   7   0.04502     0.13955    -0.18840     0.08755     0.01085     0.13727
 PY  C   7  -0.09536     0.10506     0.04428     0.04848     0.20955    -0.05737
 PZ  C   7  -0.00085     0.01559    -0.01102     0.00636     0.00694     0.01241
  
  S  C   8   0.09134    -0.11100    -0.06744    -0.20902    -0.03421     0.14705
 PX  C   8  -0.09051     0.19437    -0.03008    -0.05452     0.19933     0.07480
 PY  C   8   0.07196     0.07293    -0.16344    -0.07340    -0.09136     0.13979
 PZ  C   8  -0.00160     0.01449    -0.00514    -0.00928     0.00420     0.01851
  
  S  C   9  -0.00103     0.23686     0.05519    -0.00455    -0.00975     0.01077
 PX  C   9   0.02742     0.02054     0.11060     0.16297    -0.19780    -0.14279
 PY  C   9  -0.00304    -0.07664    -0.20723     0.08555    -0.10282    -0.06095
 PZ  C   9   0.00242     0.00682     0.00132    -0.00890    -0.00791     0.01151
  
  S  C  10   0.02888     0.22082     0.01527    -0.00163    -0.01295    -0.03916
 PX  C  10  -0.00989    -0.06443    -0.12925    -0.18949    -0.16928    -0.14460
 PY  C  10  -0.00999     0.06552     0.22391    -0.10348    -0.09898    -0.06654
 PZ  C  10   0.00248     0.00977    -0.00223    -0.01500    -0.01323    -0.00312
  
  S  C  11  -0.15630    -0.10338    -0.06619    -0.20113     0.07288    -0.13401
 PX  C  11  -0.11412    -0.13676     0.06809     0.08014     0.20759     0.09362
 PY  C  11   0.06341    -0.07733     0.17294     0.03974    -0.08798     0.16182
 PZ  C  11   0.01349     0.01059     0.00379     0.00270    -0.01297     0.00831
  
  S  H  12  -0.15043    -0.05281    -0.10852    -0.08940     0.15610    -0.13198
  
  S  C  13  -0.11131    -0.09225    -0.07793     0.22867     0.05021    -0.17771
 PX  C  13   0.02585    -0.14889     0.15202    -0.05561     0.02960     0.14421
 PY  C  13  -0.11039    -0.07738    -0.04935    -0.01139     0.22366    -0.05461
 PZ  C  13   0.00315     0.00549     0.01163    -0.01519    -0.01385     0.02176
  
  S  H  14   0.13851    -0.06591    -0.12143     0.09713    -0.14626     0.17153
  
  S  H  15   0.06053    -0.14880     0.08777     0.16874    -0.04518    -0.12822
  
  S  H  16   0.19860     0.04676     0.20510    -0.05697     0.10122    -0.11699
  
  S  H  17   0.21392     0.05842     0.20977     0.04972     0.08882    -0.08756
  
  S  H  18   0.02163    -0.17611     0.10609    -0.15120    -0.05722    -0.21982
  
  S  H  19   0.11369    -0.07160    -0.12309    -0.12777    -0.13053     0.13571
  
  S  H  20  -0.12877    -0.04608    -0.11500     0.12277     0.14792    -0.17482
  
  S  C  21  -0.13930     0.18072     0.11152     0.11553    -0.13638    -0.03503
 PX  C  21  -0.08472    -0.00523     0.11834    -0.16773    -0.18450     0.02636
 PY  C  21   0.17465     0.01558    -0.16292    -0.12020    -0.02188    -0.14684
 PZ  C  21  -0.00260     0.00059     0.00359     0.00423     0.00242     0.00647
  
  S  C  22   0.01584    -0.14338    -0.02000    -0.15822     0.07336     0.01018
 PX  C  22  -0.11148    -0.13563     0.15531    -0.10783     0.02746     0.26598
 PY  C  22   0.06510    -0.18638    -0.08906     0.07465     0.25457     0.02151
 PZ  C  22   0.00256    -0.00228    -0.00317     0.00450     0.00403    -0.00224
  
  S  C  23  -0.03178    -0.10986     0.01788     0.18310     0.02626    -0.01886
 PX  C  23   0.01839    -0.23314    -0.00903     0.03374     0.23653     0.13572
 PY  C  23  -0.14987     0.00430     0.19440     0.12510    -0.13515     0.18165
 PZ  C  23  -0.01155     0.01278     0.01583     0.00432    -0.02552     0.00870
  
  S  C  24  -0.15746     0.17696     0.11828    -0.13082    -0.12308     0.01468
 PX  C  24   0.07305     0.04915    -0.05529     0.15851    -0.15266    -0.14610
 PY  C  24  -0.18760     0.01029     0.19690     0.07877    -0.15093     0.07697
 PZ  C  24  -0.01733     0.00112     0.02353    -0.00846    -0.01222     0.02535
  
  S  H  25  -0.19487     0.08066     0.18715     0.06698    -0.11988     0.07991
  
  S  H  26  -0.06205    -0.15901     0.09463    -0.15966     0.05473     0.20510
  
  S  H  27  -0.08958    -0.12903     0.11696     0.18147     0.01655     0.15897
  
  S  H  28  -0.20959     0.07764     0.18623    -0.07850    -0.08597     0.10426
  
  S  C  29   0.08527    -0.08964     0.00010     0.09721     0.07320     0.14595
 PX  C  29  -0.07681     0.17783    -0.05301     0.17215     0.07965    -0.12498
 PY  C  29   0.26034     0.07684    -0.14207     0.00513    -0.08964     0.02037
 PZ  C  29   0.00166    -0.01203     0.00944    -0.01459    -0.00189     0.01895
  
  S  C  30   0.14333    -0.11381    -0.02953    -0.08164     0.06467     0.14609
 PX  C  30   0.14768     0.14646    -0.13538    -0.12717    -0.00431     0.01040
 PY  C  30  -0.17765     0.09061     0.00924    -0.11475     0.13365    -0.09007
 PZ  C  30  -0.00976     0.00506     0.01273    -0.01871    -0.00389     0.01610




    ROOT NO.   19          20          21          22          23          24

           -18.32381   -17.22787   -16.90407   -16.70152   -16.01097   -15.30666
  
  
  S  C   1   0.17836    -0.02887     0.04709    -0.12922     0.05961     0.04769
 PX  C   1  -0.10346     0.16047     0.05026     0.00946     0.11494     0.15181
 PY  C   1  -0.16802    -0.15630    -0.02015     0.06756     0.17769    -0.02903
 PZ  C   1  -0.00868    -0.00580    -0.00735     0.01062     0.02610    -0.01894
  
  S  C   2  -0.17372    -0.01116    -0.00628     0.06998    -0.01675     0.00930
 PX  C   2  -0.09313    -0.17182    -0.07309     0.07748    -0.13442    -0.15312
 PY  C   2   0.02166    -0.16534     0.12901    -0.23860    -0.05636     0.22577
 PZ  C   2  -0.00410    -0.00365    -0.00489     0.00444     0.02258    -0.00965
  
  S  C   3   0.07312     0.01081     0.12701    -0.17550    -0.08420     0.03342
 PX  C   3   0.17281    -0.00687     0.04200    -0.06501     0.23287    -0.13221
 PY  C   3   0.07479     0.28824    -0.02218     0.07667    -0.04118    -0.02979
 PZ  C   3   0.01582     0.02243    -0.00717     0.00978     0.05198    -0.02138
  
  S  C   4  -0.03109     0.06193    -0.12679     0.17665    -0.06388    -0.02192
 PX  C   4  -0.11619     0.23385     0.05634    -0.05379     0.10670     0.18971
 PY  C   4  -0.11200    -0.13841    -0.05181     0.05426     0.22822     0.03633
 PZ  C   4  -0.02233     0.00824    -0.00962     0.01169     0.06587    -0.00205
  
  S  C   5   0.14604    -0.01060    -0.00184    -0.05638    -0.01398    -0.03283
 PX  C   5   0.02900    -0.20416    -0.12256     0.17224    -0.13507    -0.18020
 PY  C   5   0.11949    -0.13189     0.08954    -0.17584    -0.18308     0.16171
 PZ  C   5  -0.00478    -0.01521    -0.01655     0.02406     0.02896    -0.03430
  
  S  C   6  -0.16320     0.03260    -0.03435     0.10577     0.06662    -0.03667
 PX  C   6   0.12871    -0.03945     0.00450    -0.07651     0.28206    -0.09577
 PY  C   6  -0.02269     0.25599     0.01131     0.01348     0.05290     0.01836
 PZ  C   6   0.00915    -0.00824    -0.00691     0.00287     0.04306    -0.02946
  
  S  C   7   0.08298     0.03770    -0.01599     0.04738     0.06676    -0.00974
 PX  C   7  -0.17638     0.04603    -0.10827     0.17658    -0.17481     0.10662
 PY  C   7  -0.09281     0.02426     0.24687    -0.10675    -0.07837    -0.14552
 PZ  C   7  -0.01788     0.00653    -0.00904     0.01859     0.00087     0.00160
  
  S  C   8  -0.11930     0.03224     0.02630    -0.05211     0.09282     0.04192
 PX  C   8   0.16386     0.04951    -0.14280     0.00556    -0.17782     0.00758
 PY  C   8   0.04537    -0.04681     0.21007    -0.16781    -0.11438    -0.12615
 PZ  C   8   0.00425    -0.00573    -0.00486    -0.00674     0.00868    -0.00901
  
  S  C   9   0.13365    -0.11368    -0.21112     0.02612    -0.07834     0.05465
 PX  C   9  -0.02286    -0.10851     0.02095     0.02987     0.09350     0.00233
 PY  C   9   0.09684     0.23039    -0.06248     0.01459    -0.12404     0.04695
 PZ  C   9   0.00083    -0.01247    -0.01258    -0.00351     0.00237     0.00492
  
  S  C  10  -0.14983    -0.14067     0.17403    -0.01063    -0.05601    -0.07702
 PX  C  10  -0.02289     0.11733     0.05422    -0.04795    -0.03092     0.03962
 PY  C  10   0.07478    -0.21368    -0.08838    -0.00368     0.14386     0.02318
 PZ  C  10  -0.00807    -0.00770    -0.00227     0.00059     0.00234    -0.00072
  
  S  C  11   0.11507     0.04897    -0.02724    -0.05045     0.07541    -0.00655
 PX  C  11   0.16877    -0.03250    -0.17116     0.03113     0.09436    -0.00159
 PY  C  11   0.05589    -0.03995     0.22715     0.16691     0.10444    -0.13670
 PZ  C  11  -0.00596    -0.00433     0.00549     0.00252    -0.00217    -0.01376
  
  S  H  12   0.08149     0.04462    -0.26457    -0.13716     0.00441     0.10218
  
  S  C  13  -0.06271     0.05473     0.03202     0.03721     0.08291     0.00038
 PX  C  13  -0.17632    -0.02789    -0.13927    -0.16211     0.14514     0.16620
 PY  C  13  -0.10418    -0.07329     0.27526     0.06717     0.07235    -0.16432
 PZ  C  13   0.01137    -0.01180    -0.03578    -0.00957    -0.00791     0.02809
  
  S  H  14   0.03697     0.02905    -0.24495     0.17812     0.02328     0.15035
  
  S  H  15   0.24507     0.02249     0.01393    -0.11548    -0.15703    -0.02685
  
  S  H  16  -0.13400     0.06106    -0.13363     0.25100    -0.01245    -0.22955
  
  S  H  17   0.14465    -0.03254     0.12209    -0.23342    -0.09366     0.18153
  
  S  H  18  -0.18196     0.02733    -0.02405     0.11939    -0.21665     0.05900
  
  S  H  19  -0.08273    -0.03280     0.24348    -0.15786     0.03042    -0.08505
  
  S  H  20  -0.03673    -0.01350     0.29322     0.13938     0.04366    -0.19147
  
  S  C  21  -0.15405    -0.00624    -0.00500    -0.07369     0.01259     0.04525
 PX  C  21   0.04577     0.23066    -0.07429    -0.15475     0.10500    -0.15870
 PY  C  21   0.12966     0.08278     0.14794     0.17391     0.12519     0.25323
 PZ  C  21   0.00296    -0.00698    -0.01039    -0.00591    -0.00028    -0.02987
  
  S  C  22   0.14540    -0.03039     0.03475     0.10458     0.04706     0.05210
 PX  C  22   0.10979     0.05066     0.00954     0.06659    -0.24053    -0.16504
 PY  C  22  -0.02975    -0.25309    -0.08436    -0.02163    -0.03575    -0.07301
 PZ  C  22  -0.00019    -0.00755    -0.00914    -0.00604     0.00524    -0.01691
  
  S  C  23  -0.14922     0.00776    -0.04236    -0.10623     0.04835    -0.03421
 PX  C  23  -0.12693    -0.21404     0.00979    -0.01120    -0.15428     0.15528
 PY  C  23  -0.16151     0.17960     0.05906    -0.05627    -0.18337     0.02675
 PZ  C  23   0.00466     0.02337     0.00311     0.00491    -0.00618    -0.00550
  
  S  C  24   0.16335    -0.00501    -0.00937     0.07026    -0.00330    -0.02724
 PX  C  24  -0.03852     0.22499    -0.02873    -0.07440     0.16919    -0.15719
 PY  C  24   0.03483     0.06917     0.19067     0.23388     0.04275     0.26026
 PZ  C  24   0.02037    -0.00962     0.01822     0.03956    -0.01733     0.04571
  
  S  H  25  -0.14376     0.03555    -0.15179    -0.23639    -0.03816    -0.24254
  
  S  H  26   0.16258     0.03036     0.02450     0.10734    -0.18319    -0.12208
  
  S  H  27  -0.23732     0.04192     0.02635    -0.09922    -0.18006     0.07333
  
  S  H  28   0.12418    -0.06328     0.15564     0.24455    -0.04438     0.25095
  
  S  C  29   0.02891    -0.00328     0.15903     0.17156    -0.08539     0.00711
 PX  C  29  -0.13834    -0.23023    -0.01878     0.02325    -0.06534     0.16808
 PY  C  29  -0.11165     0.15482     0.00770    -0.06214    -0.19948     0.03870
 PZ  C  29   0.02589     0.00457    -0.00346     0.00419     0.00971    -0.03759
  
  S  C  30  -0.08482     0.06686    -0.13302    -0.17039    -0.09340    -0.03458
 PX  C  30   0.15193     0.01387     0.05504     0.05482    -0.21904    -0.19075
 PY  C  30   0.04056    -0.24340    -0.13030    -0.08453     0.03466    -0.06073
 PZ  C  30   0.02259    -0.02089    -0.01741     0.00435    -0.00828     0.00356




    ROOT NO.   25          26          27          28          29          30

           -14.96232   -14.84346   -14.80374   -14.43265   -13.77342   -13.43360
  
  
  S  C   1   0.00437     0.04715    -0.03319     0.01398     0.05449    -0.00820
 PX  C   1   0.18588    -0.19539    -0.07108     0.00995     0.08857    -0.01150
 PY  C   1   0.17434     0.07571     0.14033     0.13184     0.10998    -0.13302
 PZ  C   1  -0.04490     0.00274    -0.01624     0.12661     0.07944     0.20217
  
  S  C   2   0.10544    -0.02025     0.04800     0.03323    -0.01919    -0.02428
 PX  C   2  -0.12341     0.17416     0.09704     0.01267    -0.10968     0.02330
 PY  C   2   0.21226     0.02180    -0.10887     0.02825    -0.03741     0.06136
 PZ  C   2  -0.05106    -0.00819    -0.03780     0.15570     0.08187     0.22586
  
  S  C   3  -0.05798    -0.03144    -0.01022    -0.01922     0.01437     0.01093
 PX  C   3  -0.11826     0.02909     0.13236    -0.00246     0.15833    -0.13395
 PY  C   3  -0.12538    -0.14018    -0.04480    -0.08956     0.00931    -0.02551
 PZ  C   3  -0.10005    -0.03522    -0.06754     0.24583     0.11350     0.27004
  
  S  C   4  -0.01565    -0.02323    -0.04335    -0.01933     0.02314    -0.00730
 PX  C   4   0.05049    -0.02864    -0.15336    -0.04829     0.17104    -0.07872
 PY  C   4   0.14063     0.12268     0.03192     0.05382     0.16856    -0.11907
 PZ  C   4  -0.08439    -0.02471    -0.07229     0.26048     0.12485     0.28340
  
  S  C   5  -0.05050     0.07445     0.00924    -0.00096    -0.03985     0.00657
 PX  C   5  -0.00105     0.00065     0.14106     0.02625    -0.15319     0.02866
 PY  C   5   0.26922     0.02560    -0.01701     0.13505    -0.02086    -0.00397
 PZ  C   5  -0.06948    -0.00949    -0.02011     0.16763     0.08316     0.24311
  
  S  C   6  -0.01175    -0.03093     0.02985    -0.00290     0.04584    -0.02330
 PX  C   6  -0.16012     0.19797     0.06070    -0.02069     0.11253    -0.11536
 PY  C   6  -0.18105    -0.10152    -0.11899    -0.14553     0.00297     0.06455
 PZ  C   6  -0.06641     0.01775    -0.01178     0.12463     0.08683     0.20157
  
  S  C   7   0.03185    -0.07112     0.00170     0.00344    -0.01752    -0.00132
 PX  C   7   0.16837    -0.05136    -0.09274    -0.02244    -0.17774     0.08144
 PY  C   7   0.03824    -0.14096     0.32254     0.11596    -0.06035    -0.02669
 PZ  C   7  -0.05711    -0.03851    -0.08276     0.22479     0.02403     0.15490
  
  S  C   8  -0.04226     0.01682    -0.02819    -0.02200    -0.02082     0.01557
 PX  C   8   0.00011     0.23074    -0.07252     0.01867    -0.21403     0.04007
 PY  C   8  -0.16774    -0.21548     0.13134    -0.08343    -0.17132     0.09817
 PZ  C   8  -0.09446    -0.04021    -0.06494     0.23512     0.01428     0.17188
  
  S  C   9   0.01296     0.03105     0.00404     0.00713     0.01705     0.00423
 PX  C   9   0.00645    -0.23972     0.08409    -0.02630     0.22259    -0.04091
 PY  C   9  -0.04398    -0.16166     0.05813     0.02233     0.14276    -0.10295
 PZ  C   9  -0.10700    -0.06588    -0.09781     0.28431    -0.02536     0.03694
  
  S  C  10  -0.01018    -0.02259     0.00259    -0.01466     0.00839     0.01409
 PX  C  10  -0.18096     0.10938    -0.22555    -0.10008     0.16833    -0.07788
 PY  C  10  -0.04472     0.11115    -0.13541    -0.08520     0.07656     0.02971
 PZ  C  10  -0.10105    -0.04047    -0.12897     0.27547    -0.01031     0.02044
  
  S  C  11  -0.04025     0.05885    -0.00661     0.04157    -0.02871    -0.03074
 PX  C  11   0.17535    -0.08187     0.21787     0.09061    -0.18094     0.06658
 PY  C  11   0.06162    -0.07380    -0.24792    -0.07949    -0.18232     0.04449
 PZ  C  11  -0.06801    -0.05021    -0.10778     0.22237    -0.06126    -0.12200
  
  S  H  12   0.02068     0.05109     0.28407     0.08994     0.05834    -0.00528
  
  S  C  13   0.06081    -0.01855     0.01896     0.05032     0.02905    -0.01990
 PX  C  13  -0.07228    -0.02408     0.09871    -0.03410    -0.23621     0.11514
 PY  C  13   0.08297     0.27510    -0.16783     0.02675    -0.13221     0.05069
 PZ  C  13  -0.09498    -0.09383    -0.06432     0.21570    -0.06222    -0.11604
  
  S  H  14   0.05729     0.05690    -0.27822    -0.09512    -0.04025     0.05663
  
  S  H  15  -0.21960     0.06047    -0.08933    -0.11116    -0.11646     0.09807
  
  S  H  16  -0.16634     0.03677     0.13946     0.00206    -0.02299    -0.03987
  
  S  H  17   0.19279     0.04969    -0.05843     0.09100     0.01907    -0.02005
  
  S  H  18   0.14729    -0.18451    -0.02603     0.01429    -0.09631     0.07604
  
  S  H  19  -0.14206    -0.24803     0.11521    -0.08200    -0.06232     0.07043
  
  S  H  20   0.12553     0.21292    -0.15285     0.03031     0.01774    -0.00564
  
  S  C  21  -0.08244     0.02534    -0.03817    -0.03183    -0.00236    -0.00521
 PX  C  21   0.07793     0.07278    -0.05350     0.01544    -0.20569    -0.00352
 PY  C  21  -0.07836     0.17653     0.18761     0.08483    -0.14913     0.02353
 PZ  C  21  -0.02523    -0.06324    -0.07764     0.15225    -0.09317    -0.24235
  
  S  C  22   0.01173    -0.04088     0.03579    -0.00387    -0.03990     0.02064
 PX  C  22   0.16070    -0.02840     0.04094     0.05083     0.25236     0.00443
 PY  C  22  -0.01038    -0.23766    -0.15421    -0.11119     0.09743    -0.01901
 PZ  C  22  -0.02401    -0.05379    -0.06055     0.11822    -0.08588    -0.22987
  
  S  C  23  -0.00039     0.01685    -0.03636    -0.00988    -0.06104     0.01543
 PX  C  23  -0.24571     0.04540    -0.06050    -0.04668     0.01887    -0.09639
 PY  C  23  -0.03433     0.27415     0.11576     0.09296     0.06507     0.00101
 PZ  C  23  -0.01828    -0.03313    -0.03129     0.12844    -0.07026    -0.21951
  
  S  C  24   0.03883    -0.09534    -0.00606    -0.02204     0.05631     0.00054
 PX  C  24   0.22280    -0.01085     0.04211     0.06896    -0.07243     0.06748
 PY  C  24  -0.06766    -0.02183     0.12614    -0.00992    -0.06237     0.02976
 PZ  C  24  -0.07124    -0.06548    -0.04278     0.14727    -0.07796    -0.24525
  
  S  H  25   0.05443    -0.09349    -0.18612    -0.06554     0.02071    -0.03815
  
  S  H  26   0.15269    -0.04255     0.05749     0.04650     0.22007     0.01535
  
  S  H  27  -0.14107     0.24587     0.04298     0.05226     0.03052    -0.04751
  
  S  H  28  -0.14425    -0.05998     0.05444    -0.03307     0.00635    -0.04499
  
  S  C  29   0.04432     0.01566     0.00863     0.00777     0.01423     0.02258
 PX  C  29  -0.13398    -0.06402     0.03686    -0.00889     0.19148    -0.02508
 PY  C  29  -0.05310     0.13251     0.08789     0.06430     0.18067    -0.08437
 PZ  C  29  -0.04545    -0.07749    -0.11366     0.24106    -0.13829    -0.26396
  
  S  C  30  -0.01068     0.05108     0.04653     0.01931    -0.02330     0.00471
 PX  C  30   0.04705     0.08010    -0.09731     0.01945     0.21637    -0.10067
 PY  C  30  -0.04082    -0.07123    -0.10286    -0.07505     0.03103     0.02519
 PZ  C  30  -0.08391    -0.09936    -0.09712     0.23277    -0.10523    -0.26871




    ROOT NO.   31          32          33          34          35          36

           -13.02509   -12.91397   -12.14613   -11.84079   -11.59892   -11.49468
  
  
  S  C   1  -0.01886    -0.01000     0.00946    -0.01721     0.00642     0.01992
 PX  C   1   0.22618    -0.21523    -0.06484     0.09362     0.02089     0.13279
 PY  C   1  -0.16570    -0.18732     0.20646    -0.05779    -0.09793     0.04702
 PZ  C   1  -0.06094    -0.05315    -0.04842    -0.24057     0.17162     0.11255
  
  S  C   2  -0.01811    -0.00654    -0.01810     0.02876     0.02220    -0.04059
 PX  C   2  -0.21806     0.22786     0.02182    -0.07855     0.01236    -0.15704
 PY  C   2   0.06237     0.14312    -0.19482     0.07326     0.12187    -0.09731
 PZ  C   2  -0.03952    -0.05756    -0.04657    -0.17532     0.11324     0.09996
  
  S  C   3  -0.01079     0.02960     0.01276    -0.01313    -0.00872     0.01131
 PX  C   3   0.10296    -0.19484    -0.05241     0.17961     0.04084     0.16588
 PY  C   3  -0.00112    -0.13067     0.24348    -0.14636    -0.18591     0.09623
 PZ  C   3  -0.01840    -0.08647    -0.01713    -0.05132    -0.00318     0.05868
  
  S  C   4   0.02275    -0.01856    -0.00015    -0.00328     0.00927    -0.02149
 PX  C   4  -0.12616     0.12930     0.12475    -0.16637    -0.06328    -0.16332
 PY  C   4   0.01129     0.06200    -0.20443     0.15668     0.17955    -0.11795
 PZ  C   4  -0.03960    -0.02352    -0.06409    -0.04582     0.05816    -0.03333
  
  S  C   5  -0.01988     0.00990    -0.02283     0.04114     0.01940     0.02771
 PX  C   5   0.13240    -0.15446    -0.09037     0.15680     0.03656     0.14785
 PY  C   5  -0.13386    -0.15798     0.17538    -0.08051    -0.07882     0.06791
 PZ  C   5  -0.03416    -0.04287    -0.09055    -0.15538     0.16572     0.05166
  
  S  C   6   0.01262    -0.00814    -0.00532    -0.00417     0.00674    -0.01508
 PX  C   6  -0.19082     0.13618     0.09271    -0.05892    -0.04874    -0.11088
 PY  C   6   0.17916     0.18019    -0.20441     0.06218     0.09456    -0.07480
 PZ  C   6  -0.07398    -0.02712    -0.06265    -0.23969     0.19283     0.07802
  
  S  C   7   0.03294    -0.07444    -0.00168     0.03892     0.03618    -0.00960
 PX  C   7  -0.10437     0.15294     0.04701    -0.15344    -0.00011    -0.18066
 PY  C   7  -0.14619    -0.01591    -0.06338     0.08610     0.16233    -0.12522
 PZ  C   7  -0.01209    -0.00510     0.03019     0.08209    -0.12319    -0.04853
  
  S  C   8  -0.03594     0.06508    -0.01703     0.04556     0.03574     0.01569
 PX  C   8  -0.12893    -0.10459     0.02407     0.14316     0.06716     0.21648
 PY  C   8   0.10953    -0.04558     0.10484    -0.11192    -0.15023     0.11116
 PZ  C   8  -0.00475     0.00059     0.01217     0.12139    -0.08645    -0.07567
  
  S  C   9   0.05534    -0.03653    -0.00775    -0.01316    -0.00611    -0.01318
 PX  C   9   0.17074     0.05999    -0.01099    -0.18481    -0.09889    -0.22006
 PY  C   9  -0.18300    -0.10496     0.05323     0.10760     0.23824    -0.13227
 PZ  C   9   0.02076     0.03937     0.07091     0.25158    -0.18192    -0.13849
  
  S  C  10  -0.00079     0.06332    -0.00091    -0.01175     0.01813    -0.00397
 PX  C  10  -0.09998    -0.07180     0.08537     0.14445     0.10861     0.20734
 PY  C  10   0.25977     0.02498    -0.01099    -0.13272    -0.23800     0.11779
 PZ  C  10   0.02385     0.03622     0.07595     0.24158    -0.21984    -0.08865
  
  S  C  11   0.03495    -0.06423     0.03761     0.04438     0.02963    -0.00165
 PX  C  11   0.11345     0.01520    -0.06233    -0.13749    -0.06881    -0.19974
 PY  C  11  -0.04987    -0.09060     0.17036     0.03319     0.20576    -0.11167
 PZ  C  11   0.03582     0.05244     0.04400     0.11986    -0.11742    -0.04049
  
  S  H  12   0.10544     0.04314    -0.17478    -0.10148    -0.20695     0.00304
  
  S  C  13  -0.02508     0.07329     0.01574     0.03123     0.03390    -0.01112
 PX  C  13  -0.06648     0.12905     0.09023     0.08317     0.01412     0.23269
 PY  C  13   0.08571     0.04547    -0.07500    -0.01889    -0.15719     0.12446
 PZ  C  13   0.02127     0.04764     0.06271     0.13199    -0.04826    -0.08784
  
  S  H  14   0.08665     0.04663     0.07863    -0.14092    -0.14229     0.01853
  
  S  H  15   0.01503     0.27300    -0.13547     0.00874     0.06284    -0.11800
  
  S  H  16  -0.14999    -0.03737     0.17833    -0.10254    -0.09812     0.00916
  
  S  H  17  -0.17808    -0.06359     0.19705    -0.12610    -0.09711     0.00721
  
  S  H  18   0.18409    -0.14150    -0.07527     0.07761     0.02532     0.10317
  
  S  H  19   0.12792     0.03539     0.07913    -0.15688    -0.16637     0.00977
  
  S  H  20   0.08437     0.00714    -0.11618    -0.06634    -0.14281     0.00260
  
  S  C  21  -0.00736    -0.03344     0.02491     0.01851     0.01918     0.01639
 PX  C  21  -0.03013    -0.22468    -0.14100    -0.07832    -0.03933    -0.17888
 PY  C  21   0.18084    -0.02369     0.12833    -0.03976     0.09607    -0.07062
 PZ  C  21   0.03320     0.07135    -0.06566    -0.17587     0.08926     0.13280
  
  S  C  22  -0.02254     0.00117    -0.00455     0.00238    -0.00209    -0.01475
 PX  C  22   0.06487     0.24997     0.09468     0.04810     0.00998     0.13345
 PY  C  22  -0.22786     0.00133    -0.14376     0.04476    -0.09983     0.07235
 PZ  C  22   0.02187     0.06401    -0.09193    -0.23112     0.13063     0.18254
  
  S  C  23  -0.01640    -0.01414    -0.00359     0.01006    -0.00675     0.01060
 PX  C  23  -0.00197    -0.24867    -0.09483    -0.07748     0.00550    -0.14007
 PY  C  23   0.25023     0.01058     0.15686    -0.01498     0.08021    -0.06203
 PZ  C  23   0.03988     0.08368    -0.06984    -0.21493     0.13914     0.17930
  
  S  C  24  -0.01260     0.01247     0.03039     0.00244     0.03391    -0.02923
 PX  C  24  -0.01695     0.24436     0.04905     0.05688    -0.01911     0.17787
 PY  C  24  -0.21567     0.02557    -0.19796     0.04769    -0.16472     0.11256
 PZ  C  24   0.00351     0.04740    -0.09051    -0.15422     0.08166     0.10474
  
  S  H  25  -0.16493    -0.10573    -0.18658    -0.01149    -0.10410    -0.01726
  
  S  H  26   0.05679     0.24590     0.09447     0.05039     0.00725     0.12951
  
  S  H  27   0.20767    -0.12116     0.08414    -0.05921     0.07657    -0.12114
  
  S  H  28  -0.16702    -0.09608    -0.19695    -0.01445    -0.11214    -0.00302
  
  S  C  29  -0.02741     0.03980     0.00075     0.01110     0.00862    -0.00420
 PX  C  29   0.05706     0.20356     0.15954     0.07615     0.05425     0.18750
 PY  C  29  -0.05359     0.02098    -0.25421    -0.01506    -0.23470     0.11296
 PZ  C  29   0.05664     0.06090    -0.00635    -0.05111     0.01337     0.00459
  
  S  C  30   0.01001    -0.01881    -0.01706     0.00092    -0.01626     0.02224
 PX  C  30   0.10133    -0.16063    -0.10942    -0.10258    -0.04589    -0.21559
 PY  C  30   0.16415    -0.04343     0.27823     0.00063     0.22843    -0.10915
 PZ  C  30   0.05207     0.06240     0.01408    -0.03088     0.04737    -0.01270




    ROOT NO.   37          38          39          40          41          42

           -10.64781    -9.80703    -9.68772    -8.28038    -8.03611    -6.63583
  
  
  S  C   1   0.00415     0.02986    -0.00330     0.02357     0.01770    -0.01822
 PX  C   1  -0.01228     0.02049     0.01300     0.00420     0.00926    -0.00346
 PY  C   1  -0.02146    -0.02280     0.01015    -0.01086    -0.01118     0.00503
 PZ  C   1   0.10244     0.38455    -0.06330     0.25954     0.23453    -0.17604
  
  S  C   2  -0.01195    -0.01935     0.02375    -0.03553     0.00407     0.02752
 PX  C   2   0.02003    -0.01426    -0.01850     0.00135    -0.00702    -0.00096
 PY  C   2   0.02048     0.00186    -0.00913    -0.00393     0.00017     0.00537
 PZ  C   2   0.20354     0.19945    -0.29856     0.35036    -0.05169    -0.24419
  
  S  C   3  -0.00481     0.00433     0.00801     0.00188     0.00437    -0.00348
 PX  C   3  -0.02675     0.01797     0.03594    -0.00186     0.02907    -0.00437
 PY  C   3  -0.05011     0.00613     0.04700    -0.01249     0.02012    -0.00251
 PZ  C   3   0.20792    -0.18504    -0.32440     0.00464    -0.33257     0.11503
  
  S  C   4  -0.00069     0.00022     0.00019     0.00333     0.00355     0.00142
 PX  C   4   0.01608     0.01352    -0.01252     0.00973     0.02299     0.01153
 PY  C   4   0.04634     0.02524    -0.03078     0.01847     0.03039     0.01155
 PZ  C   4  -0.20793    -0.31456     0.15171    -0.11103    -0.31457    -0.14526
  
  S  C   5   0.00097    -0.00295    -0.00284    -0.00030    -0.00487    -0.00159
 PX  C   5   0.00826     0.00644    -0.01932     0.01854    -0.00230    -0.01345
 PY  C   5  -0.02684    -0.00699     0.02068    -0.01160    -0.00383     0.00334
 PZ  C   5  -0.18599     0.01794     0.35536    -0.34769     0.01881     0.22941
  
  S  C   6   0.00207     0.00879     0.00482    -0.00438     0.01102     0.00935
 PX  C   6   0.01135    -0.03653    -0.02684     0.01064    -0.02514    -0.01172
 PY  C   6   0.02324     0.01695    -0.01128     0.00827     0.01013    -0.00115
 PZ  C   6  -0.06991     0.29680     0.26587    -0.16911     0.28496     0.20592
  
  S  C   7   0.01327    -0.00821    -0.00767    -0.00799     0.00922     0.00813
 PX  C   7  -0.01320     0.00497     0.01467     0.01333     0.00100    -0.03442
 PY  C   7   0.02618    -0.00963    -0.00990     0.00511     0.00692    -0.01159
 PZ  C   7   0.32538    -0.14427    -0.28305    -0.20436     0.02625     0.38775
  
  S  C   8  -0.00647    -0.00975    -0.00097     0.01225    -0.00452    -0.01769
 PX  C   8  -0.00237     0.01148     0.00142    -0.01661    -0.01258     0.01948
 PY  C   8  -0.00180     0.01452     0.00640    -0.02022    -0.00496     0.01833
 PZ  C   8  -0.32812    -0.25764     0.14358     0.21035    -0.00029    -0.37081
  
  S  C   9   0.00516    -0.00577     0.00871    -0.00124     0.00655    -0.00417
 PX  C   9   0.01347    -0.00686    -0.00069     0.00623     0.01285    -0.01053
 PY  C   9   0.03850    -0.03259    -0.00085     0.00314     0.01025    -0.00910
 PZ  C   9  -0.26302    -0.00367     0.01443     0.28671     0.32682     0.01133
  
  S  C  10  -0.00716     0.00067    -0.00914     0.01304    -0.01762     0.00992
 PX  C  10  -0.02986    -0.00975     0.00577     0.01495    -0.02935     0.01655
 PY  C  10  -0.04029     0.02000     0.01031    -0.00029    -0.01369     0.00905
 PZ  C  10   0.27569     0.00640    -0.00324    -0.18400     0.38508     0.02458
  
  S  C  11   0.04989     0.01340     0.03356    -0.03492     0.00971    -0.05450
 PX  C  11   0.02216     0.00299    -0.00220    -0.00789     0.01142    -0.01696
 PY  C  11   0.00582    -0.02483    -0.01484    -0.00028     0.00961    -0.00101
 PZ  C  11   0.34283     0.14748     0.24841    -0.21834     0.04039    -0.36236
  
  S  H  12  -0.02302     0.01582    -0.00692     0.01293    -0.00599     0.02626
  
  S  C  13  -0.01517     0.01399    -0.01031     0.01058    -0.00343     0.01514
 PX  C  13   0.01001    -0.00019     0.01248    -0.01555    -0.01242    -0.01115
 PY  C  13  -0.06434     0.04346    -0.01298     0.01384    -0.01294     0.03083
 PZ  C  13  -0.32592     0.25896    -0.12794     0.22169    -0.03934     0.37700
  
  S  H  14  -0.02575     0.00810     0.01403    -0.00242    -0.00296    -0.00443
  
  S  H  15   0.02118    -0.01319    -0.01603    -0.00533    -0.01324     0.00640
  
  S  H  16  -0.00463    -0.00654    -0.00825     0.01274    -0.00724    -0.01386
  
  S  H  17  -0.02060    -0.01264     0.01158    -0.00571    -0.00746    -0.00138
  
  S  H  18  -0.00571     0.00789     0.00357     0.00270    -0.00246    -0.00614
  
  S  H  19  -0.00403     0.00760     0.00351    -0.01028    -0.00062     0.00825
  
  S  H  20  -0.03023     0.01698    -0.00483    -0.00049    -0.00300    -0.00492
  
  S  C  21  -0.00452     0.00625    -0.00532    -0.01319    -0.00442    -0.01155
 PX  C  21  -0.00351    -0.00843    -0.01484     0.00513     0.01887     0.00873
 PY  C  21   0.01745    -0.02310     0.00732     0.01471     0.00298     0.01075
 PZ  C  21   0.19995    -0.21322     0.28359     0.33911    -0.07551     0.22316
  
  S  C  22   0.00322     0.00403     0.00063    -0.00148    -0.00212    -0.00120
 PX  C  22  -0.00466     0.00106     0.00631     0.00369    -0.00359     0.00271
 PY  C  22  -0.00937     0.02497     0.00006    -0.01346    -0.00881    -0.01194
 PZ  C  22   0.07846    -0.38054     0.06365     0.23821     0.22710     0.18521
  
  S  C  23  -0.00705     0.01075    -0.00226     0.00001    -0.00685     0.00573
 PX  C  23   0.01210    -0.03295    -0.00945    -0.00612     0.02787    -0.01312
 PY  C  23   0.01075     0.00786     0.01335     0.01063    -0.01950     0.00946
 PZ  C  23  -0.11807    -0.25797    -0.26448    -0.19853     0.30654    -0.18825
  
  S  C  24   0.00789    -0.01078    -0.00157    -0.00200     0.00664    -0.00445
 PX  C  24  -0.03860     0.02508    -0.02932    -0.02946    -0.00866    -0.01324
 PY  C  24   0.02672     0.01652     0.05714     0.04237    -0.01406     0.02503
 PZ  C  24  -0.22285     0.02366    -0.34418    -0.34501     0.04109    -0.22421
  
  S  H  25  -0.00976     0.00947    -0.00147     0.00227     0.00188     0.00247
  
  S  H  26  -0.00404     0.00667     0.00739     0.00165    -0.00819     0.00048
  
  S  H  27   0.00954    -0.01759    -0.00282     0.00071     0.00726    -0.00344
  
  S  H  28   0.01435     0.00217     0.01919     0.00894    -0.00131    -0.00003
  
  S  C  29  -0.01367    -0.01102    -0.01500     0.01416     0.01821     0.02559
 PX  C  29   0.02370     0.01427     0.03799    -0.00347    -0.03802    -0.01690
 PY  C  29  -0.00646     0.04141     0.03014     0.00502    -0.02543    -0.00607
 PZ  C  29   0.22445     0.17296     0.29385     0.00993    -0.34399    -0.13980
  
  S  C  30   0.00255     0.00265     0.00047    -0.00907    -0.00153    -0.00765
 PX  C  30  -0.00376    -0.00545    -0.00628     0.01128     0.01321     0.00297
 PY  C  30   0.02563    -0.05297    -0.00876    -0.00386     0.03199    -0.01099
 PZ  C  30  -0.22370     0.32685    -0.15700    -0.08807    -0.32865     0.12364




    ROOT NO.   43          44          45          46          47          48

            -1.16200     0.17903     0.30277     1.24463     1.33274     1.82431
  
  
  S  C   1  -0.00901     0.02678    -0.02124    -0.03098    -0.03873     0.00414
 PX  C   1   0.00420     0.00485     0.01229    -0.00798     0.01545     0.00941
 PY  C   1   0.00932    -0.00132     0.01347    -0.00063     0.01257     0.00552
 PZ  C   1  -0.17960     0.12387    -0.33160    -0.06093    -0.38424    -0.10265
  
  S  C   2  -0.02117    -0.03394    -0.03099     0.04741    -0.02099    -0.03439
 PX  C   2  -0.00281     0.00015    -0.01460     0.00313    -0.02108    -0.00846
 PY  C   2  -0.00070    -0.00681    -0.00451     0.00846    -0.00190    -0.00236
 PZ  C   2   0.23458     0.16789     0.31053    -0.20051     0.27364     0.20635
  
  S  C   3   0.00398     0.02079     0.01559    -0.03358     0.01214     0.02402
 PX  C   3  -0.01542     0.02282    -0.01261    -0.02052    -0.01456     0.00097
 PY  C   3  -0.01225     0.01495    -0.01520    -0.01578    -0.01092     0.01247
 PZ  C   3   0.11699    -0.32538     0.10909     0.36775     0.07998    -0.22994
  
  S  C   4   0.00545    -0.00699     0.00561     0.01685    -0.01094    -0.03687
 PX  C   4  -0.00328    -0.01836     0.01864     0.00059     0.01732     0.00750
 PY  C   4  -0.00687    -0.01315     0.02119    -0.00992     0.02025     0.01160
 PZ  C   4   0.14936     0.24718    -0.22480     0.05093    -0.34463    -0.22581
  
  S  C   5  -0.00207     0.00639    -0.00730    -0.01153    -0.00504     0.01969
 PX  C   5  -0.01930    -0.01166    -0.02546     0.02176    -0.00005    -0.00305
 PY  C   5   0.00267    -0.00079     0.00515    -0.00002     0.00607     0.00128
 PZ  C   5   0.23230     0.15920     0.32088    -0.32501     0.08852     0.20342
  
  S  C   6  -0.00477    -0.01984     0.00944     0.02180     0.02457    -0.01008
 PX  C   6   0.02049     0.02228     0.01276    -0.02276    -0.00821     0.00553
 PY  C   6  -0.00384     0.00196    -0.00555    -0.00251    -0.01058    -0.00579
 PZ  C   6  -0.21136    -0.33041    -0.06226     0.32818     0.20237    -0.08117
  
  S  C   7  -0.01335    -0.00819    -0.01291     0.00917     0.00241     0.00278
 PX  C   7   0.03346     0.01235     0.01517     0.01596     0.01094    -0.01270
 PY  C   7   0.00870     0.00366     0.00220     0.01131     0.00688    -0.00638
 PZ  C   7  -0.36653    -0.08734    -0.17670    -0.29564    -0.04978     0.33545
  
  S  C   8  -0.02397    -0.00207    -0.01289    -0.01162     0.02098     0.03841
 PX  C   8   0.01262     0.00524     0.00545     0.00207    -0.01419    -0.01442
 PY  C   8   0.01742     0.00330     0.00693     0.00570    -0.01373    -0.01799
 PZ  C   8  -0.37077    -0.08517    -0.19427    -0.05994     0.26928     0.32597
  
  S  C   9   0.00599     0.00056     0.01007     0.00595     0.00387    -0.03049
 PX  C   9  -0.00436    -0.00170    -0.00661     0.00114     0.01242     0.00820
 PY  C   9  -0.01100     0.00017     0.00654    -0.00937     0.00637    -0.01731
 PZ  C   9  -0.01759    -0.18631     0.39971     0.01192    -0.00245    -0.26666
  
  S  C  10  -0.00781    -0.00400     0.01486    -0.02256    -0.01253    -0.01253
 PX  C  10  -0.02809    -0.01536     0.00935    -0.01961    -0.00635    -0.01540
 PY  C  10  -0.00129    -0.01049    -0.01120     0.00128    -0.00545     0.01993
 PZ  C  10   0.01732     0.43609     0.03692    -0.00282    -0.00810    -0.28869
  
  S  C  11   0.05288    -0.02989    -0.03475     0.05494     0.01165     0.07642
 PX  C  11   0.01668    -0.01068    -0.00210     0.00732     0.00085     0.01419
 PY  C  11  -0.00838    -0.00344     0.00926    -0.01369     0.00015    -0.01913
 PZ  C  11   0.35428    -0.11870    -0.18524     0.26745     0.05718     0.31394
  
  S  H  12  -0.02774     0.01632     0.01577    -0.03862    -0.00139    -0.05606
  
  S  C  13   0.01462    -0.00427    -0.01215     0.00822    -0.02772     0.05696
 PX  C  13  -0.01511     0.00809     0.01083     0.00135     0.00704    -0.01449
 PY  C  13   0.02868    -0.00751    -0.01093     0.00668    -0.02092     0.01877
 PZ  C  13   0.38485    -0.12113    -0.18398     0.05090    -0.28087     0.31009
  
  S  H  14   0.00874     0.00293     0.00064     0.00050    -0.00308     0.00282
  
  S  H  15   0.00933    -0.01482     0.01562     0.01880     0.02638    -0.00115
  
  S  H  16   0.01332     0.01937     0.01936    -0.02836     0.01703     0.02540
  
  S  H  17   0.00339    -0.00091     0.00176     0.00659     0.00195    -0.00922
  
  S  H  18   0.00271     0.01295    -0.00615    -0.01381    -0.01469     0.00739
  
  S  H  19   0.01303     0.00215     0.00178     0.00991    -0.01476    -0.01852
  
  S  H  20  -0.01270     0.00451     0.00602    -0.00604     0.02623    -0.03853
  
  S  C  21   0.00436    -0.01673    -0.01738    -0.01803     0.03482    -0.02119
 PX  C  21   0.00583     0.01305    -0.00050     0.00704    -0.00272     0.00158
 PY  C  21  -0.00686     0.01070     0.00688     0.01038    -0.00478     0.00637
 PZ  C  21  -0.21610     0.18661     0.27286     0.22468    -0.28754     0.19426
  
  S  C  22  -0.00603    -0.00128     0.01447    -0.00443    -0.02789     0.00364
 PX  C  22   0.00392     0.00231    -0.00929     0.00133     0.01516    -0.00435
 PY  C  22  -0.00093    -0.01448     0.00379    -0.01201    -0.00858    -0.00247
 PZ  C  22   0.20297     0.11220    -0.30935     0.04231     0.39369    -0.08436
  
  S  C  23   0.00101     0.01164    -0.00847     0.00998     0.02195    -0.00616
 PX  C  23   0.01125    -0.02041    -0.00540    -0.02068    -0.00408    -0.00749
 PY  C  23  -0.01625     0.02201     0.00985     0.02182     0.00267     0.00818
 PZ  C  23   0.18319    -0.35004    -0.04447    -0.33639    -0.19022    -0.09964
  
  S  C  24  -0.00391     0.00060     0.00032    -0.00681    -0.00185     0.00026
 PX  C  24  -0.01510     0.00959     0.02116     0.02112    -0.01216     0.01236
 PY  C  24   0.02788    -0.02440    -0.02901    -0.03990     0.01130    -0.02844
 PZ  C  24  -0.23559     0.18462     0.28401     0.35011    -0.10682     0.21118
  
  S  H  25  -0.00061     0.00496     0.01058     0.01318    -0.02572     0.02111
  
  S  H  26   0.00045     0.00040    -0.00488     0.00614     0.01216     0.00337
  
  S  H  27  -0.00246    -0.00576     0.00791    -0.00172    -0.01715     0.00977
  
  S  H  28   0.00190    -0.00415     0.00177     0.00564    -0.00180     0.00629
  
  S  C  29   0.00261     0.03452     0.00248     0.00969    -0.01466     0.00064
 PX  C  29  -0.01257    -0.01985     0.00978    -0.00889    -0.00797    -0.00128
 PY  C  29   0.01465    -0.02171    -0.01319     0.00255    -0.00154     0.02374
 PZ  C  29  -0.16172    -0.31732     0.13076    -0.35644    -0.08580    -0.21475
  
  S  C  30  -0.00162    -0.00809     0.00518    -0.00676     0.01004    -0.02603
 PX  C  30   0.00914    -0.00951    -0.00659    -0.00126    -0.00594     0.01739
 PY  C  30  -0.00036    -0.00025     0.01550     0.01198    -0.02058     0.01280
 PZ  C  30  -0.12492     0.26332    -0.21192    -0.07110     0.37246    -0.23049




    ROOT NO.   49          50          51          52          53          54

             2.30072     2.53936     2.89037     3.11796     3.31441     3.39076
  
  
  S  C   1  -0.00018    -0.12498     0.14527    -0.11590     0.12507    -0.09804
 PX  C   1   0.02918    -0.00909     0.02854     0.02712     0.01855    -0.07214
 PY  C   1   0.01070    -0.00889     0.01896    -0.01720     0.01628     0.06410
 PZ  C   1  -0.27941    -0.15601    -0.09846    -0.16990    -0.14805    -0.00852
  
  S  C   2  -0.07757     0.13320    -0.21374     0.05228    -0.16948     0.20077
 PX  C   2  -0.03653     0.00847    -0.02260    -0.03305     0.00082     0.03265
 PY  C   2  -0.02602     0.04731    -0.05360     0.01139    -0.01891     0.04678
 PZ  C   2   0.17688     0.17052     0.03204     0.20764     0.12012     0.04643
  
  S  C   3   0.11812    -0.22008     0.27876    -0.06445     0.13990    -0.21763
 PX  C   3   0.01537    -0.00412    -0.04019     0.06732    -0.07301    -0.08573
 PY  C   3   0.00933    -0.03028     0.02089    -0.01316    -0.00439     0.11164
 PZ  C   3  -0.02368    -0.09531    -0.04803    -0.25504    -0.19952    -0.00130
  
  S  C   4  -0.10613     0.22913    -0.26405     0.13272    -0.12318    -0.16819
 PX  C   4  -0.03016     0.02070    -0.00720    -0.05332     0.02118     0.06438
 PY  C   4   0.00085    -0.01774     0.05934    -0.02820     0.05997    -0.14614
 PZ  C   4   0.04368     0.05047     0.09363     0.25359     0.22667     0.00100
  
  S  C   5   0.05104    -0.17102     0.20531    -0.16127     0.13018     0.21766
 PX  C   5   0.04636    -0.03785     0.05221     0.01029     0.01751     0.02272
 PY  C   5   0.00035     0.01779    -0.02424     0.02544    -0.02624    -0.01947
 PZ  C   5  -0.20215    -0.11070    -0.10008    -0.20339    -0.16799    -0.00199
  
  S  C   6  -0.00802     0.13509    -0.15460     0.15963    -0.12414    -0.15622
 PX  C   6  -0.02871     0.01965    -0.04219     0.00708    -0.03334     0.01095
 PY  C   6  -0.01671     0.00911    -0.01053     0.00368     0.00643    -0.09479
 PZ  C   6   0.28687     0.14072     0.11031     0.17426     0.15231     0.01819
  
  S  C   7  -0.12785     0.22436    -0.14563    -0.03734     0.08992     0.27420
 PX  C   7   0.00803    -0.00675     0.08522    -0.06216     0.10189    -0.01130
 PY  C   7  -0.03310     0.05547     0.01230    -0.04348     0.07529     0.03399
 PZ  C   7  -0.14502    -0.03950     0.01079     0.11391     0.14133    -0.05646
  
  S  C   8   0.11738    -0.21036     0.12872    -0.03718    -0.08073     0.24637
 PX  C   8   0.01723    -0.03300    -0.05920     0.06587    -0.10749     0.02481
 PY  C   8  -0.02101     0.03452    -0.05927     0.03709    -0.03703    -0.01996
 PZ  C   8   0.13793     0.09171    -0.04258    -0.10996    -0.15456    -0.01328
  
  S  C   9  -0.14881     0.25728    -0.00253    -0.09674     0.28418    -0.21078
 PX  C   9  -0.01346     0.01684     0.06926    -0.06058     0.04954     0.07456
 PY  C   9   0.00976    -0.02325     0.04952     0.01458    -0.06116    -0.13020
 PZ  C   9  -0.30677    -0.18037    -0.03744    -0.01102     0.12070    -0.03423
  
  S  C  10   0.15696    -0.25577     0.02056     0.13885    -0.28261    -0.19404
 PX  C  10  -0.01060     0.02561    -0.06567     0.01361     0.04290    -0.06645
 PY  C  10   0.01119    -0.02910    -0.04356     0.02713    -0.07431     0.14753
 PZ  C  10   0.31189     0.15165     0.05346     0.01795    -0.11955     0.08772
  
  S  C  11  -0.16430     0.17483     0.09634    -0.11161     0.11755     0.22671
 PX  C  11   0.00700    -0.04817     0.06431     0.02859    -0.09906    -0.02735
 PY  C  11  -0.02319     0.02658     0.06862     0.01248    -0.03675     0.03054
 PZ  C  11  -0.10657    -0.10930    -0.08381    -0.11875     0.00353    -0.13720
  
  S  H  12   0.08967    -0.09197    -0.05630     0.07121    -0.07772    -0.08695
  
  S  C  13   0.14487    -0.21632    -0.13890     0.09823    -0.12812     0.24746
 PX  C  13   0.00373    -0.00316    -0.09427    -0.01563     0.10164    -0.02128
 PY  C  13  -0.01690     0.05476    -0.01826    -0.00175     0.06788    -0.02930
 PZ  C  13   0.12453     0.09686     0.07384     0.13651    -0.02492     0.02399
  
  S  H  14   0.06618    -0.12497     0.08500     0.01659    -0.06056    -0.12520
  
  S  H  15   0.00092     0.08496    -0.09492     0.07722    -0.07861     0.08504
  
  S  H  16   0.04495    -0.06874     0.12879    -0.03243     0.11625    -0.09118
  
  S  H  17  -0.02314     0.09114    -0.11680     0.09467    -0.08027    -0.09160
  
  S  H  18   0.00681    -0.08520     0.09699    -0.10079     0.07750     0.12078
  
  S  H  19  -0.06208     0.10930    -0.07922     0.01669     0.05030    -0.09964
  
  S  H  20  -0.08871     0.12436     0.08574    -0.08012     0.09869    -0.12546
  
  S  C  21  -0.13027     0.11013     0.24119     0.02653    -0.15265     0.18684
 PX  C  21   0.04075    -0.04689    -0.04239     0.02688    -0.02904    -0.05570
 PY  C  21   0.00133     0.00225     0.01603     0.00712    -0.04040    -0.01754
 PZ  C  21   0.17415     0.15485    -0.00269    -0.26451    -0.06105    -0.03300
  
  S  C  22   0.09578    -0.06606    -0.20395    -0.06503     0.21937    -0.07508
 PX  C  22  -0.03038     0.01854     0.04604     0.01055    -0.03042     0.00114
 PY  C  22  -0.00094     0.01386    -0.00470    -0.02228     0.04015     0.08652
 PZ  C  22  -0.25498    -0.18742    -0.00101     0.24391     0.06959     0.02983
  
  S  C  23  -0.08709     0.08187     0.22264     0.06305    -0.25567    -0.11542
 PX  C  23   0.02161    -0.01674    -0.02042    -0.00121    -0.00913     0.05982
 PY  C  23   0.00076    -0.01561    -0.02465     0.00212     0.02749    -0.04096
 PZ  C  23   0.25621     0.17081    -0.01452    -0.23691    -0.05755    -0.03613
  
  S  C  24   0.09366    -0.12055    -0.23387    -0.02650     0.18918     0.16859
 PX  C  24  -0.01717     0.01095    -0.00508    -0.00747     0.05986    -0.00557
 PY  C  24  -0.00891     0.05267     0.04268    -0.03879    -0.00237    -0.02698
 PZ  C  24  -0.18779    -0.11418     0.04675     0.25116     0.03763     0.03021
  
  S  H  25   0.07667    -0.06150    -0.15603    -0.02574     0.10874    -0.09260
  
  S  H  26  -0.05684     0.03847     0.11560     0.03779    -0.12440     0.05828
  
  S  H  27   0.05554    -0.05522    -0.14423    -0.03679     0.16568     0.08741
  
  S  H  28  -0.05363     0.05943     0.13858     0.02623    -0.12354    -0.07509
  
  S  C  29   0.17032    -0.17638    -0.26677     0.03606     0.06710    -0.19428
 PX  C  29  -0.02007     0.03041    -0.00992    -0.02009     0.05928    -0.03848
 PY  C  29   0.00055    -0.01678    -0.07362    -0.01084     0.06451     0.11538
 PZ  C  29  -0.02699    -0.05505     0.04998     0.30767     0.03256     0.07594
  
  S  C  30  -0.14298     0.19258     0.27507    -0.03772    -0.08485    -0.13749
 PX  C  30   0.00395    -0.01759     0.05389     0.02759    -0.09149     0.08922
 PY  C  30   0.02461    -0.02766    -0.01788     0.03106    -0.03230    -0.10358
 PZ  C  30   0.04418     0.03198    -0.08364    -0.30604    -0.01772    -0.06334




    ROOT NO.   55          56          57          58          59          60

             3.57667     3.66382     3.79772     3.91687     4.26011     4.32981
  
  
  S  C   1  -0.17546     0.06186    -0.35541     0.22853    -0.10035     0.11879
 PX  C   1   0.03762    -0.02701     0.09292     0.07085    -0.04917     0.07861
 PY  C   1  -0.01452     0.02652    -0.03500    -0.07946     0.04558    -0.03813
 PZ  C   1  -0.06039    -0.06210     0.11284    -0.00892     0.00382    -0.00403
  
  S  C   2   0.05014     0.00367     0.00923    -0.28537     0.16024    -0.23615
 PX  C   2  -0.07128     0.03646    -0.18926     0.03517    -0.02014     0.03099
 PY  C   2  -0.01046     0.01807    -0.07533     0.00639    -0.02770     0.06369
 PZ  C   2   0.12040     0.06641    -0.07342    -0.06673     0.03396    -0.04402
  
  S  C   3   0.03554    -0.06746     0.29551     0.12469    -0.02802    -0.07014
 PX  C   3   0.04454    -0.03550    -0.03929    -0.01098     0.05776    -0.18193
 PY  C   3   0.04061     0.00871     0.10221    -0.15890     0.06836    -0.06258
 PZ  C   3  -0.21539    -0.10173     0.08050     0.03932    -0.01372    -0.00558
  
  S  C   4  -0.04209    -0.00933    -0.30182     0.17691    -0.03410    -0.02027
 PX  C   4  -0.08284     0.04821    -0.11543    -0.08696     0.07350    -0.12284
 PY  C   4  -0.03538    -0.02061     0.07180     0.09012     0.00500    -0.13369
 PZ  C   4   0.22683     0.10399    -0.06165    -0.03031     0.00884    -0.01529
  
  S  C   5  -0.09798     0.09742    -0.08642    -0.24314     0.14757    -0.21907
 PX  C   5   0.06896    -0.02419     0.18588    -0.01965    -0.02658     0.04068
 PY  C   5   0.03722    -0.02579     0.08777    -0.00801     0.00669    -0.02704
 PZ  C   5  -0.12282    -0.06677     0.06465     0.01116    -0.00508     0.00772
  
  S  C   6   0.17802    -0.12503     0.35971     0.09268    -0.07020     0.05957
 PX  C   6   0.01355    -0.00938     0.03324    -0.03252     0.01603    -0.00155
 PY  C   6  -0.03357    -0.00706    -0.09038     0.15253    -0.08298     0.11319
 PZ  C   6   0.07579     0.06072    -0.08011    -0.01323     0.00595    -0.00315
  
  S  C   7  -0.07883     0.12849    -0.04273    -0.06968    -0.06580     0.35433
 PX  C   7  -0.02966     0.00270     0.14296     0.06335    -0.04472     0.02370
 PY  C   7  -0.03109     0.02061     0.07507     0.03621    -0.01697    -0.05835
 PZ  C   7   0.19886     0.08218    -0.03786    -0.01982     0.01876    -0.01519
  
  S  C   8   0.13005    -0.04323     0.12171    -0.14462    -0.06019     0.34661
 PX  C   8   0.06430    -0.02829    -0.12592     0.05888    -0.04128    -0.00823
 PY  C   8   0.01102    -0.00166    -0.06565     0.03545    -0.02729     0.07134
 PZ  C   8  -0.22432    -0.09361     0.02380     0.03324     0.00636    -0.02454
  
  S  C   9  -0.19437     0.07827     0.16591     0.00319     0.13429    -0.08897
 PX  C   9  -0.00025    -0.00656     0.08478    -0.08672     0.00122     0.15558
 PY  C   9   0.02824    -0.07580    -0.06850    -0.08291     0.12788     0.03642
 PZ  C   9   0.28539     0.12425    -0.04933    -0.01794    -0.01121    -0.00032
  
  S  C  10   0.12314    -0.12801    -0.21469    -0.04873     0.11373    -0.03046
 PX  C  10  -0.06983     0.06306     0.00471    -0.07182     0.12336     0.11316
 PY  C  10   0.05580     0.01333    -0.07039    -0.02668    -0.08318     0.13793
 PZ  C  10  -0.26820    -0.12044     0.05140     0.02428    -0.02427    -0.00634
  
  S  C  11   0.07135    -0.06150     0.07091     0.13419    -0.29699    -0.19830
 PX  C  11   0.08629    -0.10027    -0.08690     0.03260    -0.00823    -0.04831
 PY  C  11   0.02399    -0.08841    -0.03505     0.01388     0.05398     0.03030
 PZ  C  11   0.19800     0.10227    -0.06153    -0.04099     0.10588     0.06523
  
  S  H  12  -0.04696     0.03805    -0.04358    -0.07375     0.25377     0.19847
  
  S  C  13   0.05011     0.14088    -0.01234     0.19560    -0.26161    -0.16395
 PX  C  13  -0.06065     0.10644     0.08337     0.06759     0.08440    -0.01431
 PY  C  13  -0.06719     0.03444     0.05506     0.04850    -0.01517    -0.05977
 PZ  C  13  -0.21669    -0.11045     0.03813    -0.01535     0.04757     0.03239
  
  S  H  14   0.05979    -0.08173     0.03572     0.03546     0.03718    -0.31223
  
  S  H  15   0.12274    -0.03669     0.25061    -0.16991     0.06649    -0.04821
  
  S  H  16  -0.02503     0.00690     0.00967     0.17373    -0.12132     0.21383
  
  S  H  17   0.07213    -0.05577     0.06546     0.13421    -0.10802     0.19785
  
  S  H  18  -0.10610     0.08264    -0.21658    -0.08320     0.05049    -0.01914
  
  S  H  19  -0.08062     0.04302    -0.08914     0.08699     0.03455    -0.30479
  
  S  H  20  -0.01433    -0.10779     0.01744    -0.13282     0.23897     0.17339
  
  S  C  21   0.09164    -0.03612    -0.00665     0.29266     0.30077     0.01732
 PX  C  21  -0.05039     0.15877     0.04685     0.02300     0.09525     0.01629
 PY  C  21  -0.01614     0.10345     0.02504    -0.00562    -0.02873    -0.00503
 PZ  C  21   0.16957     0.05939    -0.02918     0.03905     0.04414     0.00515
  
  S  C  22   0.01169    -0.31068    -0.08687    -0.20109    -0.15625     0.00634
 PX  C  22   0.00165     0.00754    -0.00296     0.00030     0.02124     0.01429
 PY  C  22   0.04896    -0.13320    -0.02267     0.10747     0.10935    -0.00219
 PZ  C  22  -0.12467    -0.08202     0.01183    -0.02793    -0.02075    -0.00063
  
  S  C  23  -0.06690     0.39270     0.06922    -0.06911    -0.05544     0.02015
 PX  C  23   0.01136     0.05933     0.03132     0.12168     0.14726     0.01540
 PY  C  23  -0.01359    -0.03141    -0.01455    -0.08144    -0.05696     0.01286
 PZ  C  23   0.11633     0.07266    -0.01496     0.00375    -0.01360    -0.00471
  
  S  C  24   0.02948    -0.11397     0.03609     0.25562     0.30723     0.02259
 PX  C  24   0.01719    -0.17484    -0.04889    -0.04306    -0.03062    -0.00695
 PY  C  24   0.04333    -0.10712    -0.04714    -0.01754     0.03954     0.00493
 PZ  C  24  -0.14983    -0.07147     0.02217    -0.01305     0.02241     0.01332
  
  S  H  25  -0.05411     0.02733     0.01150    -0.19021    -0.27412    -0.03784
  
  S  H  26  -0.00652     0.18849     0.05643     0.12622     0.05532    -0.02350
  
  S  H  27   0.04234    -0.25538    -0.04314     0.05034    -0.00422    -0.03374
  
  S  H  28  -0.01792     0.08270    -0.01904    -0.15677    -0.26422    -0.03671
  
  S  C  29  -0.15406     0.30358     0.09499    -0.11708     0.05376     0.05982
 PX  C  29  -0.01672    -0.06097    -0.01324    -0.13072    -0.17315    -0.02110
 PY  C  29  -0.00926     0.08807     0.07100     0.12168    -0.06700    -0.08060
 PZ  C  29  -0.26121    -0.07131     0.05903    -0.01357    -0.01857    -0.00050
  
  S  C  30   0.07152    -0.28282    -0.14140    -0.21795    -0.06362     0.04676
 PX  C  30   0.03894     0.01290    -0.02313     0.03773    -0.15847    -0.06993
 PY  C  30  -0.06788     0.13659     0.02459    -0.12040    -0.07352     0.02162
 PZ  C  30   0.24541     0.10649    -0.04357     0.00908    -0.02262    -0.01797




    ROOT NO.   61          62          63          64          65          66

             5.27189     5.42840     5.50323     5.74075     6.16756     6.48312
  
  
  S  C   1  -0.20277    -0.19720     0.01585     0.04531     0.04554     0.03361
 PX  C   1   0.15405     0.10114    -0.00717    -0.11717    -0.11095    -0.07946
 PY  C   1   0.13193     0.24788    -0.02332     0.05529     0.00084    -0.01363
 PZ  C   1   0.04885     0.04355    -0.00353    -0.01559    -0.01456    -0.01036
  
  S  C   2  -0.19856    -0.11486     0.00932     0.14773     0.12625     0.09148
 PX  C   2  -0.16169    -0.14222     0.01219     0.04804     0.04094     0.03449
 PY  C   2   0.06403     0.08398    -0.00763    -0.07852    -0.14390    -0.15731
 PZ  C   2  -0.05038    -0.03216     0.00267     0.03083     0.02474     0.01614
  
  S  C   3   0.06807    -0.01046    -0.00301     0.02417     0.11878     0.14324
 PX  C   3  -0.12809     0.06052    -0.01284     0.11814    -0.02354    -0.12111
 PY  C   3  -0.08029    -0.10824     0.01337     0.07024     0.13063     0.17036
 PZ  C   3  -0.00115     0.00243    -0.00136     0.00421     0.00445     0.00483
  
  S  C   4  -0.00893     0.11581    -0.01545    -0.00883    -0.11700    -0.17888
 PX  C   4   0.08675    -0.04318     0.00866    -0.14197    -0.09507    -0.06609
 PY  C   4   0.13155     0.00543    -0.00460    -0.03939     0.10738     0.18475
 PZ  C   4   0.00434    -0.01264     0.00126    -0.00942     0.00025     0.00401
  
  S  C   5   0.08907    -0.12711     0.01828    -0.21502    -0.14020    -0.09820
 PX  C   5  -0.02373    -0.09110     0.00816     0.02172     0.10039     0.15119
 PY  C   5  -0.01773    -0.20444     0.02340    -0.19781    -0.16200    -0.15564
 PZ  C   5   0.00351    -0.00129     0.00013    -0.00111     0.00502     0.01044
  
  S  C   6  -0.05316    -0.27447     0.02790    -0.17041    -0.07985    -0.03773
 PX  C   6   0.07334     0.23465    -0.02405     0.14147     0.08502     0.05316
 PY  C   6  -0.12570    -0.04177     0.00055     0.12061     0.09742     0.07315
 PZ  C   6   0.00065     0.02795    -0.00298     0.02341     0.01260     0.00664
  
  S  C   7   0.16978    -0.09615     0.02011    -0.14027     0.03405     0.14720
 PX  C   7   0.04770    -0.06121     0.00036    -0.00804     0.08897     0.12168
 PY  C   7  -0.05313     0.00880    -0.01706     0.11520     0.01674    -0.22512
 PZ  C   7  -0.00469    -0.00399     0.00060     0.01450     0.00965    -0.00852
  
  S  C   8  -0.22011     0.02250    -0.00100     0.13022    -0.04874    -0.14518
 PX  C   8   0.01942     0.02635    -0.01585    -0.10815    -0.03352     0.12901
 PY  C   8  -0.08677     0.02730    -0.00135     0.06752    -0.08495    -0.27448
 PZ  C   8   0.01463     0.00645    -0.00101    -0.01477    -0.00193     0.00894
  
  S  C   9   0.02489    -0.03131     0.02559     0.13331     0.06085    -0.14777
 PX  C   9  -0.14426     0.02704    -0.00541     0.09362    -0.03183    -0.11404
 PY  C   9  -0.07700     0.07487     0.01631    -0.08058    -0.11261     0.14429
 PZ  C   9   0.00569    -0.00773     0.00073     0.00514     0.00348    -0.00404
  
  S  C  10   0.00218     0.06288     0.01881    -0.11027    -0.08157     0.13438
 PX  C  10   0.14228    -0.09149     0.03690     0.03048     0.10870    -0.06127
[...]
  S   H   18    0.1204    0.0711   -0.0178   -0.0137   -0.0656   -0.2866   -0.0009    0.0458
  S   H   19    0.0716    0.3004    0.2053    0.1755    0.1618   -0.0357   -0.0093    0.2207
  S   H   20   -0.2226    0.1791    0.2958    0.0161   -0.0845    0.0087    0.0624   -0.2109
  S   C   21   -0.1152    0.0263   -0.0132   -0.0016    0.0018   -0.0015    0.0793    0.0317
  Px  C   21   -0.1429    0.0675   -0.2204    0.2677    0.0140    0.0024   -0.1039    0.0280
  Py  C   21    0.1561   -0.0518    0.0620   -0.0777   -0.0057   -0.0050    0.3011    0.1357
  Pz  C   21   -0.0048   -0.0011    0.0016    0.0003   -0.0004    0.0000   -0.0060   -0.0022
  S   C   22   -0.0639    0.0082    0.0556   -0.0481   -0.0049    0.0013   -0.1025   -0.0544
  Px  C   22   -0.0715    0.0132    0.0556   -0.0429   -0.0085   -0.0071    0.5050    0.1854
  Py  C   22   -0.0825    0.0188   -0.0361    0.0435    0.0005   -0.0001   -0.0329    0.0291
  Pz  C   22   -0.0015    0.0005   -0.0005   -0.0007    0.0002    0.0002   -0.0153   -0.0061
  S   C   23    0.0437   -0.0096    0.0435   -0.0405   -0.0032   -0.0013    0.1069   -0.0068
  Px  C   23    0.1156   -0.0199   -0.0176    0.0226   -0.0026    0.0034   -0.2012    0.0801
  Py  C   23    0.0048   -0.0043    0.0766   -0.0679   -0.0099    0.0054   -0.4257   -0.0521
  Pz  C   23   -0.0047    0.0004    0.0075   -0.0077   -0.0005    0.0001   -0.0132   -0.0073
  S   C   24    0.1136   -0.0221   -0.0205   -0.0053    0.0037    0.0006   -0.0614    0.0595
  Px  C   24   -0.0463    0.0148   -0.0412    0.0587   -0.0019    0.0030   -0.1966    0.0813
  Py  C   24    0.1895   -0.0590   -0.2561    0.2380    0.0362   -0.0009    0.2124   -0.1948
  Pz  C   24    0.0198   -0.0056   -0.0230    0.0240    0.0032   -0.0003    0.0366   -0.0259
  S   H   25    0.2152   -0.0719    0.1416   -0.1643   -0.0108   -0.0032    0.1813    0.0560
  S   H   26    0.0975   -0.0188   -0.0518    0.0334    0.0080    0.0045   -0.3193   -0.1157
  S   H   27   -0.0785    0.0173   -0.0480    0.0371    0.0073   -0.0040    0.2784    0.0059
  S   H   28   -0.1997    0.0539    0.1706   -0.1369   -0.0274    0.0015   -0.1765    0.1217
  S   C   29   -0.1628    0.0777   -0.1720    0.2498    0.0010    0.0013    0.0076    0.0280
  Px  C   29    0.0905   -0.0230   -0.0351    0.0999   -0.0050    0.0019   -0.1156    0.0167
  Py  C   29   -0.1890    0.0808    0.0997   -0.1486   -0.0033    0.0030   -0.0401    0.0201
  Pz  C   29   -0.0238    0.0130   -0.0159    0.0241   -0.0007   -0.0000    0.0124    0.0003
  S   C   30    0.1755   -0.0578   -0.1976    0.2293    0.0165    0.0002   -0.0120    0.0054
  Px  C   30    0.1028   -0.0648    0.0250   -0.0733    0.0154   -0.0020    0.0931   -0.2251
  Py  C   30   -0.1533    0.0675   -0.0619    0.1655   -0.0128    0.0029    0.0738   -0.0847
  Pz  C   30   -0.0010   -0.0014   -0.0140    0.0013    0.0039    0.0001    0.0024   -0.0036


   Root No.      73        74        75        76        77        78        79        80

                73 A      74 A      75 A      76 A      77 A      78 A      79 A      80 A   

                 9.371     9.587    10.164    10.680    11.080    11.574    11.730    12.152
  
  S   C    1    0.0109    0.0579    0.0396   -0.0661    0.0381    0.0217    0.0056    0.0137
  Px  C    1   -0.0146    0.2124   -0.0972   -0.1872   -0.2072   -0.1593    0.0100    0.2107
  Py  C    1    0.0578    0.0391    0.1931   -0.0537    0.2375    0.1578    0.0072   -0.1080
  Pz  C    1    0.0019   -0.0054    0.0029    0.0042    0.0029    0.0021   -0.0009   -0.0047
  S   C    2    0.0255   -0.0835    0.0776    0.0242    0.1002    0.0562    0.0277   -0.0008
  Px  C    2   -0.0030    0.2072   -0.0311   -0.2219   -0.1069   -0.0991    0.0441    0.2352
  Py  C    2    0.1220   -0.2154    0.2330   -0.0696    0.2048    0.0815    0.1149    0.1502
  Pz  C    2    0.0030   -0.0079    0.0109   -0.0012    0.0138    0.0071    0.0054    0.0053
  S   C    3   -0.0123   -0.0318    0.0069    0.0578    0.0359    0.0211    0.0069   -0.0114
  Px  C    3    0.1463   -0.1888    0.2798   -0.0373    0.0290   -0.0578   -0.1975   -0.1186
  Py  C    3    0.0568   -0.0340    0.1235   -0.1426    0.2229    0.1047    0.2947    0.3639
  Pz  C    3    0.0137   -0.0188    0.0281   -0.0095    0.0161    0.0028    0.0024    0.0133
  S   C    4    0.0070   -0.0475    0.0111    0.0727   -0.0268   -0.0286    0.0008    0.0112
  Px  C    4   -0.0264   -0.1441   -0.2065   -0.0674   -0.1979   -0.0328   -0.1482   -0.1657
  Py  C    4   -0.0483   -0.1017   -0.1185   -0.0197    0.1105    0.1102    0.3251    0.3325
  Pz  C    4   -0.0046   -0.0156   -0.0204   -0.0068   -0.0048    0.0049    0.0131    0.0114
  S   C    5    0.0059   -0.1046   -0.0524    0.0440   -0.0872   -0.0509   -0.0259   -0.0007
  Px  C    5   -0.0234   -0.0487   -0.1445   -0.1359   -0.1091    0.0164   -0.1348   -0.1831
  Py  C    5   -0.0352    0.3549    0.0669   -0.2010    0.1628    0.1333    0.0079   -0.0837
  Pz  C    5   -0.0006   -0.0100   -0.0104   -0.0035   -0.0107   -0.0018   -0.0089   -0.0109
  S   C    6   -0.0239    0.0727   -0.0619   -0.0628   -0.0586   -0.0238   -0.0141    0.0077
  Px  C    6   -0.0939    0.2928   -0.1587   -0.1899   -0.1038   -0.0252   -0.0303    0.0035
  Py  C    6    0.0109    0.1486    0.1387   -0.1530    0.2693    0.2234   -0.0227   -0.2005
  Pz  C    6   -0.0063    0.0208   -0.0098   -0.0138   -0.0055   -0.0011   -0.0008    0.0019
  S   C    7   -0.0827    0.0596   -0.0814    0.0657    0.0473    0.0593    0.0318    0.0082
  Px  C    7    0.0791   -0.1602    0.1952    0.0402    0.0656    0.0067   -0.1875   -0.1327
  Py  C    7   -0.2868    0.1494   -0.1508    0.2139    0.1539    0.1657   -0.0287   -0.0196
  Pz  C    7    0.0048   -0.0103    0.0143    0.0033    0.0048    0.0007   -0.0158   -0.0100
  S   C    8    0.0253    0.0281    0.0668    0.0857   -0.0398   -0.0678   -0.0161   -0.0215
  Px  C    8    0.0282   -0.0646    0.0187    0.2188   -0.1214   -0.1413    0.1594    0.1204
  Py  C    8   -0.0558   -0.1506   -0.1689   -0.1045    0.0272    0.0936    0.1218    0.1499
  Pz  C    8   -0.0027   -0.0113   -0.0115   -0.0011   -0.0010    0.0031    0.0136    0.0127
  S   C    9    0.0120    0.0349    0.0276   -0.0060    0.0003   -0.0148   -0.0213   -0.0142
  Px  C    9    0.0632   -0.0425    0.0743    0.2686   -0.1714   -0.1969    0.1295    0.0865
  Py  C    9    0.0644    0.0002   -0.1500    0.1703   -0.0472    0.3850   -0.2183    0.0463
  Pz  C    9   -0.0004   -0.0015    0.0004    0.0011   -0.0012   -0.0002   -0.0006    0.0001
  S   C   10    0.0151    0.0278   -0.0467    0.0023    0.0056    0.0223    0.0193   -0.0096
  Px  C   10   -0.2516    0.1387    0.0556    0.2183    0.1847   -0.2136    0.1540   -0.0941
  Py  C   10   -0.1504    0.0206   -0.1392    0.1422    0.1488    0.3660   -0.1992   -0.0371
  Pz  C   10   -0.0164    0.0081   -0.0020    0.0147    0.0125   -0.0008    0.0069   -0.0058
  S   C   11    0.1286   -0.0317   -0.0749   -0.0828   -0.0438    0.0730    0.0139   -0.0110
  Px  C   11   -0.1509    0.1206   -0.0125    0.1776    0.1375   -0.1491    0.1834   -0.1125
  Py  C   11    0.3235   -0.0161   -0.1852   -0.1142   -0.0259    0.0930    0.1351   -0.1154
  Pz  C   11   -0.0117    0.0016    0.0120    0.0074    0.0029   -0.0074   -0.0071    0.0033
  S   H   12    0.1967   -0.0412   -0.0867   -0.0913   -0.0510    0.0971    0.0195   -0.0287
  S   C   13   -0.0060    0.0482    0.0788   -0.0772    0.0233   -0.0794   -0.0351    0.0016
  Px  C   13    0.0709    0.1557    0.1528    0.0461   -0.0416   -0.0111   -0.2245    0.1099
  Py  C   13    0.0371   -0.0735   -0.1352    0.2451   -0.0785    0.1936   -0.0481    0.0326
  Pz  C   13   -0.0017    0.0079    0.0115   -0.0098    0.0034   -0.0106   -0.0033    0.0013
  S   H   14   -0.1713    0.1198   -0.1333    0.0859    0.0621    0.0924    0.0364    0.0334
  S   H   15    0.0266    0.0854    0.0662   -0.0860    0.0529    0.0282    0.0088    0.0132
  S   H   16    0.0680   -0.1632    0.1322    0.0124    0.1364    0.0694    0.0525    0.0231
  S   H   17    0.0115   -0.1957   -0.0756    0.0665   -0.1200   -0.0695   -0.0463   -0.0114
  S   H   18   -0.0572    0.1899   -0.0879   -0.1209   -0.0504   -0.0076   -0.0186   -0.0026
  S   H   19    0.0381    0.0617    0.0971    0.0996   -0.0496   -0.0960   -0.0230   -0.0484
  S   H   20   -0.0017    0.0792    0.1082   -0.0979    0.0297   -0.1035   -0.0360    0.0182
  S   C   21   -0.1021   -0.0425    0.0736   -0.0196   -0.0980    0.0752    0.0210    0.0142
  Px  C   21    0.1483   -0.0436   -0.1531   -0.1667    0.0955   -0.0312   -0.1624    0.1462
  Py  C   21   -0.2863   -0.1744    0.1106   -0.1482   -0.1800    0.1540   -0.0265    0.1038
  Pz  C   21    0.0053    0.0027   -0.0003    0.0031    0.0001   -0.0005    0.0032   -0.0040
  S   C   22    0.0401    0.0647    0.0367    0.0739   -0.0229    0.0182    0.0127    0.0047
  Px  C   22   -0.0903   -0.1921   -0.1283   -0.1734    0.0772   -0.0570   -0.0233   -0.0253
  Py  C   22   -0.1546   -0.0651    0.1617   -0.0960   -0.2648    0.2508   -0.0698    0.2102
  Pz  C   22   -0.0031    0.0054    0.0117    0.0043   -0.0133    0.0116   -0.0007    0.0080
  S   C   23    0.0876    0.0327   -0.0592    0.0633    0.0609   -0.0349   -0.0025    0.0079
  Px  C   23   -0.2235   -0.1543   -0.0214   -0.2274    0.0988   -0.1558    0.0460   -0.2114
  Py  C   23   -0.1812    0.0040    0.2076   -0.0304   -0.2236    0.1808   -0.0236    0.1133
  Pz  C   23    0.0038    0.0091    0.0106    0.0119   -0.0149    0.0165   -0.0048    0.0183
  S   C   24   -0.0732   -0.0691   -0.0556   -0.0382    0.0804   -0.0644   -0.0252   -0.0030
  Px  C   24   -0.2452   -0.1584    0.0337   -0.2513    0.0074   -0.0842    0.0691   -0.2200
  Py  C   24    0.1770    0.1720    0.1651   -0.0206   -0.1954    0.1098    0.1209   -0.1221
  Pz  C   24    0.0360    0.0291    0.0158    0.0159   -0.0227    0.0190    0.0077    0.0027
  S   H   25   -0.1817   -0.0689    0.0970   -0.0199   -0.1154    0.0852    0.0397    0.0032
  S   H   26    0.0510    0.1192    0.0818    0.1063   -0.0504    0.0374    0.0168    0.0145
  S   H   27    0.1564    0.0420   -0.0975    0.0812    0.0815   -0.0437   -0.0045    0.0065
  S   H   28   -0.1695   -0.1351   -0.0693   -0.0685    0.1025   -0.0858   -0.0440   -0.0040
  S   C   29   -0.0082   -0.0435   -0.0008   -0.0600   -0.0397    0.0347   -0.0027    0.0109
  Px  C   29    0.2185   -0.0179   -0.2244   -0.1352    0.1908   -0.0963   -0.1802    0.1344
  Py  C   29    0.1932    0.0137   -0.1512   -0.0155   -0.0978    0.1518    0.3586   -0.2582
  Pz  C   29   -0.0225   -0.0028    0.0197    0.0058   -0.0131    0.0063   -0.0006    0.0010
  S   C   30   -0.0301   -0.0287    0.0045   -0.0636    0.0102   -0.0184    0.0028   -0.0204
  Px  C   30    0.0574    0.1866    0.2364   -0.0287   -0.0343   -0.0869   -0.2404    0.0968
  Py  C   30    0.0518    0.0435    0.1167   -0.0866   -0.2568    0.1737    0.3303   -0.2925
  Pz  C   30    0.0011    0.0029    0.0064   -0.0041   -0.0123    0.0075    0.0160   -0.0154


   Root No.      81        82        83        84

                81 A      82 A      83 A      84 A   

                12.663    12.697    13.195    14.534
  
  S   C    1    0.0573   -0.0122   -0.0013    0.0371
  Px  C    1    0.2627    0.1701    0.1412    0.0937
  Py  C    1   -0.0352   -0.1478   -0.1016    0.0264
  Pz  C    1   -0.0053   -0.0036   -0.0028   -0.0018
  S   C    2   -0.0029   -0.0179   -0.0153    0.0243
  Px  C    2    0.3041    0.1588    0.1329    0.1366
  Py  C    2    0.1580    0.0406    0.0218    0.1177
  Pz  C    2    0.0071    0.0007    0.0006    0.0075
  S   C    3   -0.0145    0.0040    0.0102    0.0208
  Px  C    3    0.3254    0.0275    0.1989    0.2230
  Py  C    3    0.1280    0.1125   -0.0214    0.0926
  Pz  C    3    0.0330    0.0106    0.0152    0.0225
  S   C    4   -0.0151    0.0164   -0.0026    0.0213
  Px  C    4    0.1792   -0.2685   -0.1743    0.2342
  Py  C    4    0.0231   -0.0303   -0.2132    0.1313
  Pz  C    4    0.0125   -0.0210   -0.0268    0.0236
  S   C    5    0.0272    0.0037    0.0044    0.0311
  Px  C    5    0.1726   -0.2890   -0.1735    0.2023
  Py  C    5    0.0300   -0.1790   -0.1274    0.0602
  Pz  C    5    0.0095   -0.0161   -0.0099    0.0122
  S   C    6    0.0610   -0.0228   -0.0128    0.0408
  Px  C    6    0.1340   -0.0720   -0.0416    0.0880
  Py  C    6   -0.0092   -0.3019   -0.2076    0.0805
  Pz  C    6    0.0091   -0.0036   -0.0022    0.0053
  S   C    7   -0.0593    0.0240    0.0036    0.0078
  Px  C    7    0.2847    0.0475    0.2125    0.2452
  Py  C    7    0.0309    0.1070    0.1103    0.1403
  Pz  C    7    0.0229    0.0049    0.0172    0.0197
  S   C    8   -0.0508    0.0191    0.0119    0.0118
  Px  C    8   -0.0109   -0.1493   -0.2425    0.2792
  Py  C    8    0.1012   -0.0873   -0.1685    0.1349
  Pz  C    8    0.0080   -0.0118   -0.0178    0.0172
  S   C    9   -0.0454    0.0401    0.0149   -0.0079
  Px  C    9   -0.0672   -0.1093   -0.2202    0.2762
  Py  C    9    0.0212    0.2464   -0.1261    0.1275
  Pz  C    9    0.0022   -0.0012   -0.0007    0.0008
  S   C   10   -0.0617    0.0067    0.0155    0.0060
  Px  C   10   -0.0241   -0.0919    0.2400    0.2802
  Py  C   10    0.1388    0.2128    0.1099    0.1298
  Pz  C   10    0.0013   -0.0000    0.0147    0.0166
  S   C   11   -0.0532    0.0200    0.0096   -0.0138
  Px  C   11   -0.0951   -0.0822    0.2558    0.2770
  Py  C   11   -0.1397    0.0212    0.1661    0.1297
  Pz  C   11    0.0108   -0.0000   -0.0077   -0.0044
  S   H   12   -0.0269    0.0346    0.0105   -0.0106
  S   C   13   -0.0573    0.0169    0.0015   -0.0073
  Px  C   13   -0.1873    0.1942   -0.2147    0.2327
  Py  C   13    0.0253    0.1021   -0.1194    0.1423
  Pz  C   13   -0.0047   -0.0002   -0.0005   -0.0010
  S   H   14   -0.0508    0.0421   -0.0070    0.0005
  S   H   15    0.0594   -0.0199   -0.0079    0.0367
  S   H   16    0.0036   -0.0172   -0.0228    0.0211
  S   H   17    0.0276    0.0170    0.0238    0.0163
  S   H   18    0.0761   -0.0447   -0.0243    0.0467
  S   H   19   -0.0459   -0.0054    0.0206    0.0043
  S   H   20   -0.0540   -0.0058   -0.0016   -0.0048
  S   C   21    0.0089   -0.0290    0.0138   -0.0271
  Px  C   21   -0.3029   -0.0824    0.1813    0.1877
  Py  C   21   -0.1547   -0.1160    0.1500    0.0631
  Pz  C   21    0.0071    0.0031   -0.0053   -0.0052
  S   C   22    0.0615   -0.0171   -0.0185   -0.0393
  Px  C   22   -0.1188    0.0533    0.0222    0.0759
  Py  C   22   -0.2057   -0.2282    0.2415    0.0787
  Pz  C   22   -0.0020   -0.0102    0.0076   -0.0003
  S   C   23    0.0589   -0.0283   -0.0031   -0.0388
  Px  C   23   -0.0799    0.2999   -0.1696    0.0917
  Py  C   23   -0.0942   -0.1201    0.1150    0.0330
  Pz  C   23    0.0003   -0.0235    0.0153   -0.0039
  S   C   24    0.0181    0.0064   -0.0141   -0.0276
  Px  C   24   -0.1279    0.3186   -0.1602    0.1343
  Py  C   24   -0.0993    0.1406   -0.0342    0.1164
  Pz  C   24   -0.0014   -0.0066    0.0065    0.0034
  S   H   25    0.0098   -0.0299    0.0231   -0.0171
  S   H   26    0.0678   -0.0331   -0.0092   -0.0404
  S   H   27    0.0651   -0.0246   -0.0092   -0.0373
  S   H   28    0.0041    0.0287   -0.0322   -0.0115
  S   C   29   -0.0170   -0.0034   -0.0035   -0.0235
  Px  C   29   -0.3026   -0.0650    0.1820    0.2220
  Py  C   29   -0.0582    0.0231    0.2138    0.1325
  Pz  C   29    0.0214    0.0033   -0.0192   -0.0201
  S   C   30   -0.0120    0.0128    0.0089   -0.0175
  Px  C   30   -0.2294    0.2039   -0.2049    0.2161
  Py  C   30   -0.0393    0.1832    0.0015    0.0960
  Pz  C   30   -0.0039    0.0117   -0.0015    0.0065


              NET ATOMIC CHARGES AND DIPOLE CONTRIBUTIONS

  ATOM NO.   TYPE          CHARGE      No. of ELECS.   s-Pop       p-Pop       
    1          C          -0.030199        4.0302     1.11159     2.91861
    2          C          -0.037381        4.0374     1.10325     2.93413
    3          C           0.017250        3.9827     1.06784     2.91491
    4          C           0.016740        3.9833     1.05593     2.92733
    5          C          -0.019570        4.0196     1.08590     2.93367
    6          C          -0.031439        4.0314     1.09305     2.93839
    7          C          -0.042909        4.0429     1.10089     2.94202
    8          C          -0.032835        4.0328     1.09584     2.93699
    9          C           0.006757        3.9932     1.07259     2.92065
   10          C           0.012816        3.9872     1.07457     2.91261
   11          C          -0.039315        4.0393     1.11375     2.92556
   12          H           0.013206        0.9868     0.98679
   13          C          -0.036960        4.0370     1.10712     2.92984
   14          H           0.028303        0.9717     0.97170
   15          H           0.015106        0.9849     0.98489
   16          H           0.028730        0.9713     0.97127
   17          H           0.021278        0.9787     0.97872
   18          H           0.036280        0.9637     0.96372
   19          H           0.020427        0.9796     0.97957
   20          H           0.033437        0.9666     0.96656
   21          C          -0.026645        4.0266     1.09010     2.93654
   22          C          -0.018876        4.0189     1.08569     2.93319
   23          C          -0.030432        4.0304     1.09829     2.93214
   24          C          -0.027900        4.0279     1.09718     2.93072
   25          H           0.024490        0.9755     0.97551
   26          H           0.022317        0.9777     0.97768
   27          H           0.025293        0.9747     0.97471
   28          H           0.026624        0.9734     0.97338
   29          C           0.015890        3.9841     1.07104     2.91307
   30          C           0.009517        3.9905     1.06874     2.92175
 DIPOLE           X         Y         Z       TOTAL
 POINT-CHG.    -0.051     0.326    -0.039     0.332
 HYBRID        -0.066    -0.058    -0.191     0.211
 SUM           -0.117     0.268    -0.230     0.372


          ATOMIC ORBITAL ELECTRON POPULATIONS

     Atom    s        px        py        pz   
    1  C   1.11159   0.98022   0.95409   0.98430
    2  C   1.10325   0.98072   0.94599   1.00742
    3  C   1.06784   0.96964   0.96891   0.97636
    4  C   1.05593   0.96849   0.97161   0.98723
    5  C   1.08590   0.97348   0.95211   1.00808
    6  C   1.09305   0.94855   0.99172   0.99812
    7  C   1.10089   0.96239   0.95196   1.02767
    8  C   1.09584   0.97365   0.95168   1.01166
    9  C   1.07259   0.97562   0.96490   0.98013
   10  C   1.07457   0.97200   0.96706   0.97356
   11  C   1.11375   0.96162   0.95079   1.01315
   12  H   0.98679
   13  C   1.10712   0.96960   0.94803   1.01220
   14  H   0.97170
   15  H   0.98489
   16  H   0.97127
   17  H   0.97872
   18  H   0.96372
   19  H   0.97957
   20  H   0.96656
   21  C   1.09010   0.96851   0.95586   1.01217
   22  C   1.08569   0.95095   0.98901   0.99322
   23  C   1.09829   0.97576   0.94665   1.00973
   24  C   1.09718   0.96922   0.96664   0.99486
   25  H   0.97551
   26  H   0.97768
   27  H   0.97471
   28  H   0.97338
   29  C   1.07104   0.96791   0.97368   0.97148
   30  C   1.06874   0.97052   0.97332   0.97791

 **********************
 *                    *
 * JOB ENDED NORMALLY *
 *                    *
 **********************



 TOTAL JOB TIME:             1.87 SECONDS

 == MOPAC DONE ==


          MOPAC Job: "./tetraceneTraj/tetracene_1581.mop" ended normally on Feb 15, 2023, at 11:34.

rm: cannot remove ./tetraceneTraj/tetracene_1581.cim: No such file or directory
rm: cannot remove ./tetraceneTraj/tetracene_1581.end: No such file or directory
rm: cannot remove ./tetraceneTraj/tetracene_1581.log: No such file or directory
rm: cannot remove ./tetraceneTraj/tetracene_1581.temp: No such file or directory
rm: cannot remove ./tetraceneTraj/tetracene_1581.ple: No such file or directory
rm: cannot remove ./tetraceneTraj/tetracene_1581.sts: No such file or directory
