 *******************************************************************************
 ** Site#:    0         For non-commercial use only    Version 20.173L 64BITS **
 *******************************************************************************
 ** Cite this program as: MOPAC2016, Version: 20.173L, James J. P. Stewart,   **
 ** Stewart Computational Chemistry, web-site: HTTP://OpenMOPAC.net.          **
 *******************************************************************************
 **                                                                           **
 **                                MOPAC2016                                  **
 **                                                                           **
 *******************************************************************************

                              INDO CALCULATION RESULTS

 *******************************************************************************
 *  CALCULATION DONE:                                Wed Feb 15 11:23:58 2023  *
 *  INDO       - The INDO Hamiltonian to be used
 *
 *
 *
 *                 CHARGE ON SYSTEM = 0
 *
 *
 *
 *  C.I.=(N,M) - 3 DOUBLY FILLED LEVELS USED IN A C.I. INVOLVING 6 M.O.'S
 *  T=         - A TIME OF 172800.0 SECONDS REQUESTED
 *  DUMP=N     - RESTART FILE WRITTEN EVERY 7200.0 SECONDS REQUESTED
 *  RELSCF     - DEFAULT SCF CRITERION MULTIPLIED BY 0.0000
 *              (DEFAULT SCF CRITERION = 0.00010)
 *  ALLVEC     - PRINT ALL EIGENVECTORS
 **********
 *  WARNING: Specified print options may not behave as expected with INDO
 **********
 *******************************************************************************
INDO C.I.=(6,3) AllVEC CHARGE=0 RELSCF=0.000001


   ATOM   CHEMICAL          X               Y               Z
  NUMBER   SYMBOL      (ANGSTROMS)     (ANGSTROMS)     (ANGSTROMS)
 
     1       C         18.55922996  *  19.44921865  *  22.37494586  *
     2       C         19.95004139  *  19.47138178  *  22.38558584  *
     3       C         20.70691917  *  20.66783061  *  22.46198883  *
     4       C         19.99112059  *  21.99139930  *  22.49561902  *
     5       C         18.52535735  *  21.91787922  *  22.47545933  *
     6       C         17.83876229  *  20.71021701  *  22.39892554  *
     7       C         22.08774044  *  20.62651867  *  22.42162834  *
     8       C         20.70567752  *  23.16574338  *  22.52996315  *
     9       C         22.12039957  *  23.12861380  *  22.48768755  *
    10       C         22.84203578  *  21.85510829  *  22.42348724  *
    11       C         24.24453361  *  21.88870129  *  22.49176495  *
    12       H         24.77549758  *  20.92339409  *  22.57509482  *
    13       C         22.88533781  *  24.31683223  *  22.51341904  *
    14       H         22.68294887  *  19.71388893  *  22.33906602  *
    15       H         17.97803773  *  18.52653644  *  22.33657837  *
    16       H         20.52426142  *  18.53956675  *  22.40426930  *
    17       H         18.01960386  *  22.88502554  *  22.52159793  *
    18       H         16.70115243  *  20.71028389  *  22.41746961  *
    19       H         20.09835911  *  24.13231150  *  22.45363557  *
    20       H         22.32715985  *  25.25292819  *  22.58486508  *
    21       C         26.48860398  *  23.03476566  *  22.54366691  *
    22       C         27.14679220  *  24.23630847  *  22.57961555  *
    23       C         26.47191786  *  25.50449957  *  22.61926049  *
    24       C         25.08636700  *  25.59397716  *  22.70277006  *
    25       H         26.97122296  *  22.04074133  *  22.51555713  *
    26       H         28.24777774  *  24.18439033  *  22.53131620  *
    27       H         27.14877920  *  26.40549480  *  22.54290188  *
    28       H         24.52691757  *  26.64709307  *  22.75615892  *
    29       C         25.03192613  *  23.06336185  *  22.49639882  *
    30       C         24.31709308  *  24.38086382  *  22.59961507  *
 


          CARTESIAN COORDINATES 

    NO.       ATOM           X           Y           Z

     1         C         18.5592     19.4492     22.3749
     2         C         19.9500     19.4714     22.3856
     3         C         20.7069     20.6678     22.4620
     4         C         19.9911     21.9914     22.4956
     5         C         18.5254     21.9179     22.4755
     6         C         17.8388     20.7102     22.3989
     7         C         22.0877     20.6265     22.4216
     8         C         20.7057     23.1657     22.5300
     9         C         22.1204     23.1286     22.4877
    10         C         22.8420     21.8551     22.4235
    11         C         24.2445     21.8887     22.4918
    12         H         24.7755     20.9234     22.5751
    13         C         22.8853     24.3168     22.5134
    14         H         22.6829     19.7139     22.3391
    15         H         17.9780     18.5265     22.3366
    16         H         20.5243     18.5396     22.4043
    17         H         18.0196     22.8850     22.5216
    18         H         16.7012     20.7103     22.4175
    19         H         20.0984     24.1323     22.4536
    20         H         22.3272     25.2529     22.5849
    21         C         26.4886     23.0348     22.5437
    22         C         27.1468     24.2363     22.5796
    23         C         26.4719     25.5045     22.6193
    24         C         25.0864     25.5940     22.7028
    25         H         26.9712     22.0407     22.5156
    26         H         28.2478     24.1844     22.5313
    27         H         27.1488     26.4055     22.5429
    28         H         24.5269     26.6471     22.7562
    29         C         25.0319     23.0634     22.4964
    30         C         24.3171     24.3809     22.5996

           Empirical Formula: C18 H12  =    30 atoms



      MOLECULAR POINT GROUP   :   C2h 


      RHF CALCULATION, NO. OF DOUBLY OCCUPIED LEVELS = 42

 WARNING: INDO only performs single-point calculations
  SCF CRITERION =    0.1000E-09

 Summary of symmetry occupancy in each shell:

 SHELL     
    1   42
    v   42
 TOTAL  84




    ROOT NO.    1           2           3           4           5           6

           -44.76688   -42.94798   -40.49173   -36.96705   -35.90527   -34.15257
  
  
  S  C   1   0.12609    -0.19635    -0.27055     0.26685     0.04646     0.09323
 PX  C   1   0.03466    -0.04685    -0.04773     0.01423     0.05330     0.07611
 PY  C   1   0.04627    -0.06848    -0.08544     0.06629    -0.02847    -0.03917
 PZ  C   1   0.00189    -0.00279    -0.00339     0.00221    -0.00042    -0.00056
  
  S  C   2   0.17211    -0.22766    -0.23833     0.13037     0.20049     0.25352
 PX  C   2   0.00025     0.02279     0.07158    -0.11609     0.06604     0.04562
 PY  C   2   0.06681    -0.07940    -0.06344     0.00071     0.01824     0.01120
 PZ  C   2   0.00337    -0.00424    -0.00378     0.00040     0.00306     0.00342
  
  S  C   3   0.29949    -0.27607    -0.09648    -0.15651     0.21095     0.18286
 PX  C   3   0.00878     0.04905     0.13628    -0.13656     0.10052     0.04723
 PY  C   3   0.05438    -0.01577     0.06527    -0.10337    -0.11308    -0.12735
 PZ  C   3  -0.00314     0.00393     0.00328    -0.00042    -0.00815    -0.00790
  
  S  C   4   0.29042    -0.26260    -0.07837    -0.17713    -0.21273    -0.19475
 PX  C   4   0.05728     0.00464     0.11990    -0.15457     0.04658     0.07632
 PY  C   4  -0.02664     0.05623     0.08785    -0.06944    -0.12671    -0.09335
 PZ  C   4  -0.00294     0.00359     0.00316    -0.00132    -0.00224    -0.00184
  
  S  C   5   0.15864    -0.21082    -0.22099     0.11425    -0.21699    -0.26077
 PX  C   5   0.05341    -0.05347    -0.01860    -0.05433    -0.03978    -0.02897
 PY  C   5  -0.03510     0.06073     0.09314    -0.09922    -0.02486    -0.02024
 PZ  C   5  -0.00147     0.00248     0.00388    -0.00462    -0.00069    -0.00055
  
  S  C   6   0.12333    -0.19193    -0.26382     0.25715    -0.09335    -0.11663
 PX  C   6   0.05698    -0.08225    -0.09757     0.06489    -0.01296    -0.00878
 PY  C   6   0.00432    -0.00243     0.00680    -0.02764    -0.05533    -0.08354
 PZ  C   6   0.00199    -0.00299    -0.00372     0.00254    -0.00331    -0.00473
  
  S  C   7   0.26026    -0.12733     0.12246    -0.21065     0.34966     0.13789
 PX  C   7  -0.04148     0.07347     0.04811     0.08020     0.00280    -0.08790
 PY  C   7   0.08311    -0.01236     0.08380    -0.06189    -0.00319    -0.04928
 PZ  C   7   0.00254    -0.00043     0.00209    -0.00187    -0.00151    -0.00135
  
  S  C   8   0.25584    -0.11967     0.13687    -0.23519    -0.33145    -0.13705
 PX  C   8   0.05201     0.02555     0.09414    -0.00598    -0.00300     0.08702
 PY  C   8  -0.08034     0.06669    -0.00922     0.10434    -0.00242     0.05097
 PZ  C   8  -0.00645     0.00372    -0.00311     0.00683     0.00660     0.00339
  
  S  C   9   0.33974     0.02138     0.29357    -0.00410    -0.22292     0.04287
 PX  C   9   0.01703     0.09011     0.02792     0.19653     0.08007     0.04751
 PY  C   9  -0.05636     0.04489    -0.03502     0.09999    -0.12915     0.06014
 PZ  C   9  -0.00005     0.00140     0.00001     0.00223    -0.00527     0.00225
  
  S  C  10   0.33893     0.02404     0.28718     0.01656     0.22168    -0.04390
 PX  C  10  -0.03793     0.08709    -0.01637     0.19273     0.05811    -0.07315
 PY  C  10   0.04527     0.05322     0.04661     0.10380    -0.14200    -0.00571
 PZ  C  10   0.00916     0.00280     0.00802     0.00442     0.00167    -0.00248
  
  S  C  11   0.23279     0.16194     0.14784     0.24592     0.26371    -0.23749
 PX  C  11  -0.05538     0.02165    -0.09551    -0.01066    -0.02271    -0.07249
 PY  C  11   0.05956     0.07556     0.01159     0.10012    -0.03495    -0.02299
 PZ  C  11  -0.00010     0.00159    -0.00248    -0.00027    -0.00167    -0.00141
  
  S  H  12   0.07256     0.04944     0.04146     0.06830     0.14152    -0.12392
  
  S  C  13   0.22674     0.15222     0.15516     0.22394    -0.27497     0.23555
 PX  C  13   0.01891     0.07136    -0.03973     0.08207     0.03671     0.05880
 PY  C  13  -0.07942    -0.02362    -0.08531    -0.05938     0.00753     0.04206
 PZ  C  13   0.00217     0.00340    -0.00031     0.00399    -0.00585     0.00895
  
  S  H  14   0.08025    -0.03579     0.03656    -0.05101     0.17612     0.06212
  
  S  H  15   0.03190    -0.05298    -0.08098     0.09618     0.02020     0.04152
  
  S  H  16   0.05493    -0.06942    -0.06729     0.03016     0.11093     0.13210
  
  S  H  17   0.04920    -0.06231    -0.05972     0.02182    -0.11064    -0.13070
  
  S  H  18   0.02918    -0.04846    -0.07397     0.08689    -0.03669    -0.04994
  
  S  H  19   0.07231    -0.03455     0.03406    -0.06169    -0.15882    -0.06687
  
  S  H  20   0.07094     0.04464     0.04769     0.05872    -0.14403     0.11842
  
  S  C  21   0.12979     0.25827    -0.21929    -0.11001     0.13108    -0.30351
 PX  C  21  -0.04183    -0.06105     0.01348    -0.05549    -0.02696     0.03641
 PY  C  21   0.03120     0.07952    -0.09586    -0.09354    -0.01946     0.02644
 PZ  C  21   0.00025     0.00092    -0.00164    -0.00244    -0.00180     0.00384
  
  S  C  22   0.10490     0.24388    -0.26914    -0.24711     0.04534    -0.12064
 PX  C  22  -0.04586    -0.09810     0.09165     0.05344    -0.00289     0.00141
 PY  C  22  -0.00454    -0.00538    -0.00367    -0.02236    -0.03946     0.11023
 PZ  C  22  -0.00030    -0.00063     0.00053     0.00013    -0.00175     0.00510
  
  S  C  23   0.10070     0.23427    -0.25861    -0.23944    -0.04592     0.13789
 PX  C  23  -0.02635    -0.05268     0.04153     0.00769     0.03464    -0.09219
 PY  C  23  -0.03784    -0.08400     0.08469     0.06285    -0.01340     0.04038
 PZ  C  23  -0.00047    -0.00097     0.00090     0.00077    -0.00125     0.00394
  
  S  C  24   0.12224     0.24268    -0.20448    -0.10642    -0.13069     0.30624
 PX  C  24   0.00444     0.03408    -0.07115    -0.10113     0.02975    -0.03160
 PY  C  24  -0.05285    -0.09613     0.06512     0.00695     0.02092    -0.03558
 PZ  C  24  -0.00612    -0.01194     0.00948     0.00382     0.00461    -0.01014
  
  S  H  25   0.03963     0.07466    -0.05779    -0.02109     0.06890    -0.15317
  
  S  H  26   0.02706     0.06699    -0.08186    -0.09018     0.02093    -0.05961
  
  S  H  27   0.02425     0.06042    -0.07452    -0.08423    -0.01636     0.05307
  
  S  H  28   0.03126     0.05913    -0.04596    -0.02025    -0.05818     0.13039
  
  S  C  29   0.23708     0.32055    -0.07509     0.17316     0.12612    -0.22041
 PX  C  29  -0.04702     0.00830    -0.12674    -0.16030     0.02737    -0.08625
 PY  C  29   0.01811     0.06165    -0.08016    -0.06305    -0.09463     0.14101
 PZ  C  29   0.00539     0.00952    -0.00615    -0.00011    -0.00030    -0.00016
  
  S  C  30   0.23028     0.31097    -0.07116     0.16215    -0.14805     0.24638
 PX  C  30  -0.00643     0.06022    -0.13540    -0.13092     0.06157    -0.05432
 PY  C  30  -0.05313    -0.03342    -0.05803    -0.10342    -0.06151     0.13388
 PZ  C  30  -0.00572    -0.00476    -0.00450    -0.01031    -0.00028     0.00319




    ROOT NO.    7           8           9          10          11          12

           -31.85351   -31.36558   -28.75066   -28.26874   -26.95235   -26.05199
  
  
  S  C   1  -0.16416     0.26486    -0.26375    -0.20052     0.00072     0.19326
 PX  C   1  -0.09632    -0.08676    -0.07488     0.18042     0.02519     0.06975
 PY  C   1   0.05983     0.02893     0.09735    -0.01698    -0.07786    -0.10656
 PZ  C   1   0.00119    -0.00113     0.00343     0.00319    -0.00196    -0.00386
  
  S  C   2  -0.26698    -0.06246    -0.15109     0.17871     0.11540     0.03812
 PX  C   2   0.02237    -0.14888     0.16222     0.08192     0.06530    -0.18382
 PY  C   2   0.02046    -0.07804     0.09351     0.06572    -0.10989    -0.09899
 PZ  C   2  -0.00218    -0.00617     0.00345     0.00763    -0.00137    -0.00573
  
  S  C   3  -0.06671    -0.24116     0.12687     0.08384    -0.12455    -0.15699
 PX  C   3   0.04863     0.03383     0.10071    -0.17438     0.08840    -0.06764
 PY  C   3   0.09838     0.01274    -0.03854    -0.10648    -0.19634     0.09763
 PZ  C   3   0.00399     0.00266    -0.00487    -0.00234    -0.00650     0.00668
  
  S  C   4   0.09804    -0.23411    -0.09620     0.12253    -0.09819     0.18356
 PX  C   4  -0.10758     0.01819    -0.09984    -0.15849    -0.11959    -0.04851
 PY  C   4  -0.00346     0.02293    -0.13487    -0.04614     0.19774     0.10367
 PZ  C   4  -0.00008     0.00017    -0.00423    -0.00085     0.00373     0.00444
  
  S  C   5   0.27985    -0.03828     0.22744     0.11069     0.11580    -0.04609
 PX  C   5  -0.01405    -0.13547    -0.11012     0.14456    -0.04757     0.18798
 PY  C   5  -0.00664    -0.08715    -0.06885     0.06889     0.11734     0.11530
 PZ  C   5  -0.00073    -0.00560    -0.00442     0.00524     0.00359     0.00797
  
  S  C   6   0.14676     0.26859     0.16655    -0.26935    -0.01263    -0.20466
 PX  C   6  -0.00060    -0.01442    -0.01636     0.08057    -0.05248     0.05817
 PY  C   6   0.12441    -0.08270     0.18043     0.11227     0.05271    -0.12044
 PZ  C   6   0.00678    -0.00069     0.00937     0.00280     0.00127    -0.00685
  
  S  C   7   0.14867     0.01448     0.20757    -0.16278     0.18522    -0.00454
 PX  C   7   0.11581     0.15408    -0.05483    -0.00865     0.13402     0.18719
 PY  C   7   0.06618     0.09500    -0.04333    -0.09467    -0.15845     0.09530
 PZ  C   7  -0.00041    -0.00015    -0.00263    -0.00091    -0.00955    -0.00067
  
  S  C   8  -0.14701    -0.01360    -0.24830    -0.06144     0.19933     0.00506
 PX  C   8  -0.13238     0.14772     0.03737    -0.09550    -0.07365    -0.20672
 PY  C   8  -0.06667     0.06493     0.05474     0.03937     0.18068    -0.10540
 PZ  C   8   0.00290    -0.00034     0.00583     0.00257    -0.00269     0.00083
  
  S  C   9  -0.22297     0.22959     0.00351     0.00096    -0.07603    -0.18472
 PX  C   9   0.06806     0.02263     0.13699     0.15266    -0.12523     0.06892
 PY  C   9  -0.13313    -0.03634     0.08487     0.08756     0.22224    -0.10581
 PZ  C   9  -0.00469    -0.00235     0.00152     0.00038     0.00847    -0.00222
  
  S  C  10   0.20074     0.25960    -0.00420    -0.00094    -0.07375     0.16779
 PX  C  10   0.07091    -0.01482    -0.06946     0.19960     0.12540     0.06117
 PY  C  10  -0.12791     0.01706    -0.04057     0.11332    -0.22412    -0.10381
 PZ  C  10   0.00208     0.00524    -0.00343     0.00432    -0.00701     0.00179
  
  S  C  11   0.14810     0.00001    -0.20618     0.16947     0.15518    -0.02918
 PX  C  11  -0.11354    -0.16844    -0.06671    -0.07444     0.06039    -0.20134
 PY  C  11  -0.06549    -0.08756    -0.01844     0.04083    -0.18778    -0.09811
 PZ  C  11  -0.00374    -0.00608    -0.00228    -0.00391     0.00033    -0.00663
  
  S  H  12   0.07113    -0.00336    -0.10485     0.03860     0.20454    -0.02111
  
  S  C  13  -0.16141    -0.01012     0.26449     0.07078     0.15808     0.02955
 PX  C  13   0.13155    -0.14170     0.03857    -0.02766    -0.12591     0.20978
 PY  C  13   0.06521    -0.08541     0.01886    -0.09715     0.14994     0.10973
 PZ  C  13   0.00149    -0.00710     0.00745    -0.00495     0.00959     0.01042
  
  S  H  14   0.07674     0.00845     0.10102    -0.03521     0.22781     0.01147
  
  S  H  15  -0.08055     0.14215    -0.15673    -0.14772     0.03110     0.13110
  
  S  H  16  -0.13108    -0.03684    -0.06739     0.08039     0.14334     0.01142
  
  S  H  17   0.13532    -0.02724     0.10335     0.05292     0.14212    -0.01307
  
  S  H  18   0.06981     0.13526     0.08990    -0.17655     0.02434    -0.13612
  
  S  H  19  -0.05901    -0.01968    -0.09713     0.01945     0.22119     0.01469
  
  S  H  20  -0.08422    -0.00652     0.12397    -0.00504     0.20649     0.00678
  
  S  C  21  -0.29150    -0.05616     0.13920    -0.17265     0.09435     0.03070
 PX  C  21  -0.03324     0.13994     0.14968     0.09849     0.02274     0.19606
 PY  C  21  -0.01923     0.08019     0.08149     0.02534    -0.09010     0.11543
 PZ  C  21   0.00234     0.00360     0.00167     0.00224    -0.00321     0.00497
  
  S  C  22  -0.17859     0.25838     0.22582     0.19567    -0.02862     0.20024
 PX  C  22  -0.01178     0.02939     0.05329     0.08758     0.03079     0.07259
 PY  C  22   0.13656     0.08961    -0.11608     0.17135    -0.04642    -0.12298
 PZ  C  22   0.00684     0.00082    -0.00696     0.00228    -0.00134    -0.00635
  
  S  C  23   0.16808     0.26583    -0.15377     0.27855    -0.00707    -0.20353
 PX  C  23  -0.11443     0.08390     0.12219     0.15224    -0.03476     0.07220
 PY  C  23   0.06470    -0.02591    -0.08415     0.01798     0.05977    -0.10709
 PZ  C  23   0.00606    -0.00255    -0.00779    -0.00508     0.00315    -0.00638
  
  S  C  24   0.29527    -0.03189    -0.18192    -0.10722     0.11943    -0.04711
 PX  C  24   0.02954     0.13429    -0.11759     0.12879    -0.05102    -0.19942
 PY  C  24  -0.00940     0.07238    -0.03510     0.09874     0.06519    -0.09614
 PZ  C  24  -0.00833     0.00296     0.00278     0.00453     0.00234    -0.00194
  
  S  H  25  -0.13800    -0.03314     0.06048    -0.07274     0.10839     0.00318
  
  S  H  26  -0.09645     0.13971     0.14553     0.14312     0.00526     0.14896
  
  S  H  27   0.07112     0.14303    -0.07119     0.19666     0.01182    -0.12591
  
  S  H  28   0.11970    -0.01409    -0.06713    -0.03528     0.10872    -0.01676
  
  S  C  29  -0.07154    -0.26358    -0.13174    -0.09497    -0.09023    -0.18070
 PX  C  29  -0.11064    -0.00496     0.02736    -0.16958     0.10878    -0.05427
 PY  C  29   0.01927    -0.01975     0.09586    -0.09846    -0.14203     0.12924
 PZ  C  29  -0.00042    -0.00831    -0.00178    -0.00930    -0.00507    -0.00134
  
  S  C  30   0.11281    -0.24819     0.08169    -0.14922    -0.07702     0.20118
 PX  C  30   0.06379    -0.01792    -0.15917    -0.11718    -0.05902    -0.09227
 PY  C  30   0.09499     0.02124    -0.00263    -0.09631     0.17587     0.08440
 PZ  C  30   0.00579     0.00295    -0.00651    -0.00902     0.01304    -0.00021




    ROOT NO.   13          14          15          16          17          18

           -25.06509   -24.02730   -22.69085   -21.53732   -20.54831   -19.26927
  
  
  S  C   1   0.00815     0.11789     0.00284    -0.16854    -0.05127    -0.02326
 PX  C   1   0.00540    -0.23857     0.00181    -0.00123     0.25450     0.18760
 PY  C   1  -0.13514    -0.00352     0.17636     0.14563    -0.11079     0.22610
 PZ  C   1  -0.00383    -0.00455     0.00444     0.00704     0.00140     0.00579
  
  S  C   2   0.13270    -0.18171    -0.10755     0.10484     0.13978     0.03645
 PX  C   2   0.09292     0.04377    -0.08186     0.17106    -0.13858    -0.15244
 PY  C   2  -0.17707     0.01147     0.18615     0.09564    -0.16646     0.06494
 PZ  C   2  -0.00291    -0.00298     0.00211     0.01035    -0.00400    -0.00637
  
  S  C   3  -0.11166     0.10494     0.01015     0.08300    -0.07468    -0.16217
 PX  C   3   0.16411     0.15267    -0.14112    -0.10940    -0.01395    -0.02964
 PY  C   3  -0.17814     0.08620     0.02756    -0.13700     0.12865    -0.08514
 PZ  C   3  -0.00649     0.00202    -0.00111    -0.00239     0.00799    -0.01467
  
  S  C   4  -0.10722     0.09327     0.02332    -0.08817    -0.07388    -0.12987
 PX  C   4  -0.06063     0.15257    -0.06523     0.16886     0.11823    -0.03991
 PY  C   4   0.23507     0.07175    -0.12759     0.04134    -0.07297     0.07024
 PZ  C   4   0.00506     0.00436    -0.00603     0.00113     0.00014    -0.01047
  
  S  C   5   0.13922    -0.17479    -0.10157    -0.13388     0.12426    -0.01373
 PX  C   5  -0.11475     0.00849     0.14161    -0.14995    -0.20809    -0.01701
 PY  C   5   0.16008     0.01584    -0.14787    -0.13091    -0.04363    -0.19110
 PZ  C   5   0.00483     0.00107    -0.00577    -0.00887    -0.00419    -0.01589
  
  S  C   6   0.01626     0.13417    -0.01157     0.18533    -0.04423     0.03063
 PX  C   6  -0.11756    -0.11934     0.16146    -0.10076     0.01514     0.23310
 PY  C   6   0.07834    -0.18841    -0.09499     0.04318     0.26991     0.04698
 PZ  C   6   0.00212    -0.00774    -0.00317     0.00317     0.01154     0.00053
  
  S  C   7   0.11280     0.10467     0.08240    -0.19703    -0.06883     0.15272
 PX  C   7  -0.00845    -0.14212     0.17731    -0.06613     0.03371     0.19249
 PY  C   7  -0.10619    -0.07289    -0.04078    -0.04776     0.21581    -0.03511
 PZ  C   7  -0.00557     0.00219    -0.00789     0.00617     0.00968    -0.02103
  
  S  C   8   0.11885     0.09036     0.05963     0.21963    -0.05041     0.17207
 PX  C   8  -0.09045    -0.13368     0.05435     0.05515     0.20296     0.03846
 PY  C   8   0.05007    -0.07312     0.14988     0.04351    -0.09709     0.11401
 PZ  C   8  -0.00369     0.00045    -0.00103    -0.00401     0.00320    -0.01159
  
  S  C   9   0.00900    -0.21832    -0.02812    -0.00338     0.00025    -0.00182
 PX  C   9   0.02125    -0.05730    -0.10599    -0.17674    -0.19234    -0.13224
 PY  C   9  -0.02442     0.06459     0.21483    -0.07048    -0.10846    -0.07062
 PZ  C   9  -0.00413     0.00723     0.00812     0.00429     0.00658    -0.00572
  
  S  C  10  -0.00150    -0.22269    -0.03107    -0.00556     0.00679     0.00283
 PX  C  10  -0.01384     0.02152     0.10411     0.19211    -0.16983    -0.13479
 PY  C  10   0.03711    -0.08176    -0.21378     0.08233    -0.10179    -0.08615
 PZ  C  10  -0.00245    -0.00313    -0.00521     0.01027     0.00360    -0.01601
  
  S  C  11  -0.13549     0.09888     0.04376     0.21368     0.05598    -0.16478
 PX  C  11  -0.07957     0.17720    -0.04550    -0.07146     0.18650     0.04469
 PY  C  11   0.11286     0.07760    -0.15630    -0.06251    -0.09442     0.14120
 PZ  C  11  -0.00270     0.00703     0.00058     0.00100     0.01392    -0.00675
  
  S  H  12  -0.15800     0.06175     0.09683     0.11380     0.14353    -0.15164
  
  S  C  13  -0.13706     0.10905     0.07191    -0.20118     0.03771    -0.13451
 PX  C  13   0.04258     0.15347    -0.17228     0.05952     0.03922     0.16898
 PY  C  13  -0.13208     0.11021     0.03871     0.01965     0.21552    -0.03524
 PZ  C  13  -0.01107     0.01125    -0.00109     0.00333     0.01706    -0.00106
  
  S  H  14   0.10986     0.04520     0.12920    -0.09108    -0.14226     0.17274
  
  S  H  15   0.07293     0.14506    -0.09818    -0.17349    -0.05833    -0.23225
  
  S  H  16   0.19785    -0.08330    -0.18552     0.05443     0.11654    -0.07192
  
  S  H  17   0.19835    -0.08238    -0.18060    -0.09538     0.10094    -0.11789
  
  S  H  18   0.08021     0.14371    -0.11262     0.16423    -0.03475    -0.16042
  
  S  H  19   0.11871     0.04851     0.09083     0.10619    -0.15121     0.13783
  
  S  H  20  -0.15678     0.06756     0.11569    -0.10378     0.12939    -0.15038
  
  S  C  21  -0.15828    -0.16766    -0.12734    -0.11934    -0.11331     0.01853
 PX  C  21  -0.09310    -0.01269    -0.15705     0.16593    -0.16674     0.01903
 PY  C  21   0.16359    -0.04963     0.17208     0.11907    -0.03212    -0.16388
 PZ  C  21   0.00566    -0.00225     0.00607     0.00945    -0.00318    -0.01075
  
  S  C  22   0.01965     0.11859     0.00632     0.16354     0.04815    -0.03761
 PX  C  22  -0.09925     0.14267    -0.17962     0.10691     0.02019     0.20625
 PY  C  22   0.09331     0.19932     0.12006    -0.06724     0.22965     0.00679
 PZ  C  22   0.00381    -0.00027     0.00692    -0.00114     0.00214    -0.01107
  
  S  C  23  -0.00070     0.13229     0.00404    -0.17193     0.02828     0.01642
 PX  C  23   0.03977     0.25036     0.01898    -0.02483     0.22044     0.12970
 PY  C  23  -0.13799     0.01840    -0.20460    -0.12545    -0.11577     0.20493
 PZ  C  23  -0.00534    -0.01397    -0.00471     0.00289    -0.01700    -0.01219
  
  S  C  24  -0.19123    -0.17537    -0.16595     0.11176    -0.11833    -0.01172
 PX  C  24   0.07834    -0.04309     0.06721    -0.16628    -0.14794    -0.08877
 PY  C  24  -0.15428     0.02379    -0.20181    -0.09293    -0.13549     0.09284
 PZ  C  24  -0.00658     0.00108    -0.00911     0.00191    -0.00506     0.00089
  
  S  H  25  -0.20354    -0.05955    -0.21111    -0.07997    -0.08575     0.11647
  
  S  H  26  -0.05466     0.14680    -0.12076     0.16141     0.03283     0.13691
  
  S  H  27  -0.05290     0.17327    -0.09874    -0.16665     0.04446     0.19269
  
  S  H  28  -0.20113    -0.05747    -0.21445     0.04752    -0.09063     0.07888
  
  S  C  29   0.13246     0.10460     0.04017    -0.10083     0.05976     0.13132
 PX  C  29  -0.09195    -0.16157     0.07321    -0.16293     0.08139    -0.08703
 PY  C  29   0.22753    -0.10023     0.14748    -0.00478    -0.07705     0.05730
 PZ  C  29   0.01015    -0.00264     0.01036     0.00143     0.00508    -0.00194
  
  S  C  30   0.10502     0.09567     0.01213     0.10017     0.08246     0.14071
 PX  C  30   0.14015    -0.17804     0.14632     0.10931    -0.02525    -0.03430
 PY  C  30  -0.21831    -0.09066    -0.04810     0.12636     0.12133    -0.11816
 PZ  C  30  -0.01496    -0.01357    -0.00026     0.01786     0.01026    -0.01379




    ROOT NO.   19          20          21          22          23          24

           -18.36653   -17.26036   -16.83422   -16.55816   -15.86835   -15.26189
  
  
  S  C   1   0.15088     0.03620     0.06107     0.07450     0.05865     0.06565
 PX  C   1  -0.05503    -0.16621     0.08428    -0.01623     0.13609     0.03611
 PY  C   1  -0.12396     0.15930    -0.00639    -0.10506     0.18669     0.03432
 PZ  C   1  -0.00851    -0.00155    -0.00448    -0.00350    -0.00330     0.00787
  
  S  C   2  -0.15173    -0.01278    -0.00400    -0.05540    -0.01554    -0.00054
 PX  C   2  -0.10842     0.13985    -0.12173    -0.04993    -0.16643    -0.06708
 PY  C   2   0.03340     0.17570     0.15879     0.14722    -0.04299     0.24424
 PZ  C   2  -0.00834     0.00224    -0.00418     0.00399    -0.01772     0.01544
  
  S  C   3   0.03772     0.00599     0.16106     0.13968    -0.07531     0.04462
 PX  C   3   0.14763     0.03519     0.08184     0.00928     0.25065    -0.10374
 PY  C   3   0.05429    -0.26458    -0.03047    -0.00696    -0.03795    -0.11402
 PZ  C   3  -0.00331    -0.02236    -0.01276     0.00500    -0.01292     0.01797
  
  S  C   4  -0.07152    -0.10083    -0.19101    -0.11384    -0.06836    -0.06083
 PX  C   4  -0.13619    -0.20340     0.06443     0.04389     0.07905     0.12844
 PY  C   4  -0.12145     0.11690    -0.05778    -0.10452     0.22256     0.06704
 PZ  C   4  -0.00726    -0.01091    -0.01695     0.00010    -0.00375     0.03344
  
  S  C   5   0.16507     0.02401     0.00707     0.05628     0.00913     0.01483
 PX  C   5   0.02412     0.13839    -0.16997    -0.13026    -0.10909    -0.16443
 PY  C   5   0.08561     0.13463     0.10375     0.11499    -0.11069     0.21496
 PZ  C   5   0.00387     0.00360    -0.00447     0.00614    -0.01773     0.02636
  
  S  C   6  -0.16118    -0.01832    -0.05282    -0.09197     0.04017    -0.06605
 PX  C   6   0.17890     0.08708     0.02983     0.02688     0.24856    -0.00943
 PY  C   6   0.00383    -0.23359     0.01636     0.02656     0.02235    -0.08009
 PZ  C   6  -0.00133    -0.01257    -0.00426     0.00156    -0.00624     0.00652
  
  S  C   7   0.11647    -0.04069    -0.02188    -0.04006     0.07770    -0.03459
 PX  C   7  -0.11543    -0.08421    -0.17579    -0.10005    -0.18210     0.05967
 PY  C   7  -0.09132     0.00439     0.30272     0.04746    -0.06555    -0.14136
 PZ  C   7  -0.00151    -0.00653     0.01326     0.01941     0.00307     0.01781
  
  S  C   8  -0.06803    -0.01616     0.06729     0.04503     0.04548     0.03002
 PX  C   8   0.19661    -0.07109    -0.15133     0.07838    -0.13934     0.11386
 PY  C   8   0.09728     0.08871     0.28117     0.13552    -0.12441    -0.15756
 PZ  C   8  -0.00070    -0.01360    -0.01868     0.00207    -0.00393     0.03344
  
  S  C   9   0.13519     0.10300    -0.20027     0.01963    -0.03681     0.07332
 PX  C   9  -0.07801     0.11420     0.01318    -0.08161     0.09106    -0.09658
 PY  C   9   0.08646    -0.21902    -0.04402     0.05914    -0.10082    -0.02531
 PZ  C   9   0.00366    -0.02417    -0.01658     0.01446    -0.00368     0.04214
  
  S  C  10  -0.14939     0.14102     0.15217    -0.04147    -0.09205    -0.07928
 PX  C  10  -0.06528    -0.11413     0.03761     0.06970    -0.08592     0.03729
 PY  C  10   0.03695     0.20258    -0.11263    -0.03179     0.13263     0.05442
 PZ  C  10  -0.00082    -0.00645    -0.01042     0.02034     0.00808     0.03930
  
  S  C  11   0.08243    -0.04077     0.01372     0.03629     0.08889     0.01712
 PX  C  11   0.19490     0.03300    -0.12003    -0.03557     0.17141     0.00106
 PY  C  11   0.08706     0.00348     0.14789    -0.19506     0.03199    -0.19774
 PZ  C  11   0.01185    -0.00578    -0.02274     0.02222     0.01889     0.03239
  
  S  H  12   0.05279    -0.01406    -0.17093     0.16006     0.09970     0.16360
  
  S  C  13  -0.11925    -0.06825     0.01806    -0.04957     0.09406    -0.00168
 PX  C  13  -0.13864     0.03472    -0.05311     0.11135     0.15209     0.19382
 PY  C  13  -0.12024     0.04448     0.20127    -0.11830     0.02032    -0.07267
 PZ  C  13  -0.00453     0.00110    -0.00250     0.00330     0.00513     0.02392
  
  S  H  14   0.06997    -0.07041    -0.31712    -0.09884     0.01037     0.11568
  
  S  H  15   0.18423    -0.01910    -0.00161     0.12117    -0.17091    -0.00782
  
  S  H  16  -0.13974    -0.07077    -0.18420    -0.16281    -0.04698    -0.21343
  
  S  H  17   0.13319     0.06378     0.16222     0.17021    -0.03157     0.24153
  
  S  H  18  -0.22266    -0.07970    -0.05002    -0.06846    -0.19811    -0.02387
  
  S  H  19  -0.04532     0.08923     0.31966     0.08813    -0.00329    -0.15432
  
  S  H  20  -0.08346    -0.01793     0.19512    -0.16609    -0.00417    -0.14432
  
  S  C  21  -0.17197     0.01553     0.00349     0.06673    -0.00606     0.05378
 PX  C  21   0.04825    -0.19180    -0.02928     0.22073     0.15179    -0.08238
 PY  C  21   0.08481    -0.14772     0.13584    -0.26517     0.08212     0.26243
 PZ  C  21   0.00884    -0.01152    -0.00531     0.00812     0.02399     0.00534
  
  S  C  22   0.15076     0.00108     0.01962    -0.12599     0.04648     0.01406
 PX  C  22   0.20627    -0.03501    -0.02864     0.01251    -0.20004    -0.18238
 PY  C  22  -0.02152     0.26825    -0.09002     0.01873    -0.03446    -0.13566
 PZ  C  22   0.00124     0.00269    -0.00786     0.00730     0.02850    -0.01004
  
  S  C  23  -0.15690     0.00329    -0.01673     0.11010     0.06388    -0.01045
 PX  C  23  -0.06394     0.22520    -0.01964    -0.02889    -0.21481     0.14949
 PY  C  23  -0.09179    -0.16869     0.04937     0.09120    -0.17691     0.10217
 PZ  C  23   0.01405    -0.01786    -0.00153    -0.00473     0.03432    -0.01827
  
  S  C  24   0.15968     0.00141    -0.00759    -0.08183    -0.00324    -0.04817
 PX  C  24  -0.11242    -0.24551     0.02216     0.11938     0.23064    -0.11354
 PY  C  24   0.02612    -0.14813     0.14244    -0.28835    -0.03673     0.22531
 PZ  C  24   0.01739    -0.00097     0.00290    -0.02781     0.00181     0.01354
  
  S  H  25  -0.13062     0.04873    -0.11864     0.32494     0.00089    -0.20789
  
  S  H  26   0.24007    -0.03652    -0.01307    -0.04984    -0.15000    -0.15405
  
  S  H  27  -0.16666     0.00141     0.01444     0.10548    -0.20829     0.14403
  
  S  H  28   0.13456    -0.01201     0.10088    -0.31438    -0.12321     0.20043
  
  S  C  29   0.07659    -0.03930     0.09693    -0.17764    -0.13177    -0.02617
 PX  C  29  -0.16979     0.20962    -0.01432    -0.10027    -0.10106     0.13010
 PY  C  29  -0.09641    -0.14694    -0.00631     0.14196    -0.18983     0.09008
 PZ  C  29   0.00743    -0.00627    -0.01474     0.01916     0.00173     0.01532
  
  S  C  30  -0.01892     0.00543    -0.08994     0.21158    -0.06333     0.02268
 PX  C  30   0.17547     0.00380    -0.00951     0.02383    -0.21090    -0.18323
 PY  C  30   0.03994     0.28907    -0.09155     0.01876     0.04885    -0.08114
 PZ  C  30   0.02424     0.02753    -0.01781     0.00275    -0.00217    -0.00481




    ROOT NO.   25          26          27          28          29          30

           -14.84557   -14.76307   -14.65350   -14.55837   -13.68417   -13.46503
  
  
  S  C   1   0.00052     0.01753    -0.00305     0.04430     0.05366     0.00623
 PX  C   1   0.20917     0.17038     0.15152    -0.06022     0.11670     0.01349
 PY  C   1   0.16669    -0.21025    -0.06098    -0.04704     0.14540     0.03112
 PZ  C   1  -0.00712    -0.07090     0.10634     0.04150     0.02492    -0.23230
  
  S  C   2   0.10117    -0.04542    -0.00633    -0.04392    -0.02503     0.00590
 PX  C   2  -0.17219    -0.18900    -0.15474     0.02555    -0.15167    -0.00872
 PY  C   2   0.19077     0.07066    -0.00588     0.09789    -0.09631    -0.00586
 PZ  C   2  -0.01904    -0.09603     0.13999     0.05956     0.01921    -0.25982
  
  S  C   3  -0.01862     0.06085     0.03735    -0.00158     0.01024    -0.00853
 PX  C   3  -0.14702    -0.06874     0.00821    -0.07192     0.25244     0.04265
 PY  C   3  -0.06025     0.13707     0.08220    -0.05727     0.04505     0.01258
 PZ  C   3  -0.03777    -0.14385     0.23625     0.08856     0.04655    -0.29675
  
  S  C   4   0.02005     0.03294     0.01954    -0.00219     0.03692     0.01469
 PX  C   4   0.07536     0.16173     0.05237     0.10121     0.15004     0.03462
 PY  C   4   0.07402    -0.08997    -0.05509     0.04613     0.18720     0.05478
 PZ  C   4  -0.01691    -0.14451     0.22632     0.10365     0.04886    -0.28011
  
  S  C   5  -0.08523    -0.05026    -0.05631     0.04326    -0.02454    -0.00253
 PX  C   5  -0.03108    -0.13937    -0.03647    -0.11812    -0.12730    -0.02018
 PY  C   5   0.34064    -0.08524    -0.04209     0.01034    -0.02338     0.01339
 PZ  C   5   0.00987    -0.09012     0.13012     0.05908     0.02284    -0.23814
  
  S  C   6  -0.00795    -0.02329     0.00800    -0.04314     0.04421     0.01318
 PX  C   6  -0.26496    -0.11206    -0.10885     0.09713     0.12769     0.02601
 PY  C   6  -0.21090     0.22886     0.08301     0.03175    -0.01491     0.00391
 PZ  C   6  -0.01895    -0.05540     0.10615     0.04695     0.02075    -0.22602
  
  S  C   7   0.03698     0.03605     0.05182    -0.01535     0.00591    -0.01006
 PX  C   7   0.17352     0.03958     0.01324     0.05219    -0.24483    -0.05282
 PY  C   7   0.03385    -0.19745    -0.01421    -0.24558    -0.07476    -0.01161
 PZ  C   7  -0.04434    -0.15277     0.21616     0.05974     0.04171    -0.14730
  
  S  C   8  -0.07727     0.03462     0.01734     0.03760    -0.03923    -0.02041
 PX  C   8  -0.04377    -0.10590    -0.14664     0.16215    -0.16846    -0.01817
 PY  C   8  -0.14109     0.05908     0.09244    -0.17484    -0.20458    -0.06533
 PZ  C   8  -0.01945    -0.14085     0.21634     0.09958     0.02571    -0.14319
  
  S  C   9   0.01232    -0.00675    -0.00614    -0.04888    -0.00724    -0.00783
 PX  C   9   0.06797     0.10078     0.16605    -0.20231     0.17919     0.01834
 PY  C   9   0.03459     0.06567     0.09060    -0.13295     0.15660     0.02668
 PZ  C   9  -0.03659    -0.17497     0.27083     0.10715    -0.01002     0.00607
  
  S  C  10  -0.00133    -0.02630    -0.02347     0.03208    -0.02913    -0.00202
 PX  C  10  -0.13443     0.13300     0.00039     0.23346     0.21019     0.05563
 PY  C  10  -0.06659     0.09338    -0.01556     0.10490     0.07576     0.01174
 PZ  C  10  -0.04693    -0.18120     0.26946     0.08208     0.00523     0.01269
  
  S  C  11  -0.05179    -0.01358    -0.04024     0.02921     0.02511     0.00561
 PX  C  11   0.12037    -0.09437    -0.01927    -0.23446    -0.18920    -0.06488
 PY  C  11   0.07201     0.11482     0.02576     0.29226    -0.14407    -0.02457
 PZ  C  11  -0.02119    -0.15202     0.20849     0.01561    -0.04199     0.15434
  
  S  H  12  -0.02747    -0.13466    -0.02680    -0.31253     0.04019     0.00478
  
  S  C  13   0.05715    -0.01210    -0.00713    -0.03579     0.02173    -0.00842
 PX  C  13  -0.11793     0.04054    -0.00924    -0.09194    -0.26821    -0.08759
 PY  C  13   0.00588    -0.13016    -0.18839     0.31470    -0.09623     0.00489
 PZ  C  13  -0.02711    -0.12548     0.20048     0.08309    -0.05648     0.14333
  
  S  H  14   0.07114     0.18769     0.02406     0.18677    -0.05864    -0.01134
  
  S  H  15  -0.22532     0.09366    -0.02974     0.08798    -0.15271    -0.02234
  
  S  H  16  -0.17751    -0.16295    -0.07036    -0.07685    -0.01298    -0.00124
  
  S  H  17   0.23773    -0.03509    -0.03687     0.07630     0.02024     0.00666
  
  S  H  18   0.24039     0.09162     0.10682    -0.11189    -0.10361    -0.02254
  
  S  H  19  -0.11282     0.11152     0.12957    -0.18948    -0.10608    -0.04461
  
  S  H  20   0.07622    -0.12112    -0.12423     0.27066     0.05316     0.04938
  
  S  C  21  -0.07704     0.04163     0.01191     0.03815     0.01147     0.01679
 PX  C  21   0.00563    -0.04637    -0.06936     0.08503    -0.11977    -0.00457
 PY  C  21  -0.12322    -0.09001    -0.09103    -0.07780    -0.04522    -0.01933
 PZ  C  21  -0.00627    -0.07717     0.13021     0.02646    -0.08900     0.26515
  
  S  C  22   0.01902     0.01862     0.02302    -0.03107    -0.05634    -0.01408
 PX  C  22   0.18730    -0.11735    -0.02040    -0.04707     0.15202     0.00762
 PY  C  22   0.06120     0.18070     0.14378     0.02734    -0.00410    -0.00978
 PZ  C  22   0.00407    -0.04402     0.11593     0.02754    -0.09747     0.25147
  
  S  C  23  -0.01420    -0.00051    -0.01750     0.04054    -0.05618    -0.00730
 PX  C  23  -0.18234     0.10098     0.06649     0.00942     0.10833     0.08061
 PY  C  23  -0.06467    -0.19726    -0.14347    -0.01705     0.14425     0.04038
 PZ  C  23   0.02077    -0.05025     0.11334     0.02266    -0.10064     0.24278
  
  S  C  24   0.04597     0.04361     0.05376    -0.02371     0.01891     0.00156
 PX  C  24   0.14832    -0.13618    -0.08465     0.01066    -0.14923    -0.05067
 PY  C  24  -0.07852     0.01650     0.03209    -0.09688    -0.08893    -0.01490
 PZ  C  24  -0.00829    -0.05290     0.15124     0.02498    -0.08163     0.26519
  
  S  H  25   0.06055     0.07554     0.04934     0.10493    -0.00330     0.01654
  
  S  H  26   0.17958    -0.10284    -0.01663    -0.06136     0.12368    -0.00917
  
  S  H  27  -0.15089    -0.09090    -0.08775     0.01237     0.15807     0.05945
  
  S  H  28  -0.10357     0.08926     0.09330    -0.08496     0.00119     0.02607
  
  S  C  29   0.05640    -0.04077    -0.02665     0.03166     0.01087    -0.00840
 PX  C  29  -0.06836     0.06546     0.06015    -0.09634     0.13495    -0.00139
 PY  C  29  -0.04669    -0.11705    -0.05015    -0.08915     0.17792     0.05721
 PZ  C  29  -0.01462    -0.13638     0.21232     0.03360    -0.07137     0.30781
  
  S  C  30  -0.03591    -0.04909    -0.02353    -0.04847    -0.00518     0.01143
 PX  C  30   0.08312    -0.04848    -0.02428     0.07706     0.26935     0.07253
 PY  C  30  -0.01201     0.14335     0.02944     0.05109     0.04659    -0.05250
 PZ  C  30  -0.01312    -0.10140     0.22297     0.06347    -0.06368     0.30321




    ROOT NO.   31          32          33          34          35          36

           -13.07296   -12.90845   -12.03398   -11.88494   -11.59919   -11.46112
  
  
  S  C   1  -0.00291    -0.00716     0.00455    -0.00621     0.00384     0.01913
 PX  C   1   0.06404     0.20107    -0.13292     0.02110    -0.03257     0.15029
 PY  C   1  -0.23295     0.07414     0.18114     0.01521     0.08693     0.04451
 PZ  C   1  -0.00548     0.00679     0.02877    -0.32423    -0.05143     0.05597
  
  S  C   2  -0.01860     0.00276    -0.02805     0.00861    -0.03441    -0.03984
 PX  C   2  -0.04947    -0.20263     0.09355    -0.01173     0.00613    -0.17436
 PY  C   2   0.17438    -0.11138    -0.20619    -0.00914    -0.12957    -0.11389
 PZ  C   2   0.00372    -0.00756     0.01714    -0.25970    -0.02754     0.03125
  
  S  C   3   0.01260    -0.02982     0.02522    -0.00234     0.01342     0.01181
 PX  C   3  -0.06791     0.13697    -0.12960     0.02937    -0.08752     0.21469
 PY  C   3  -0.10325     0.12106     0.27617     0.01222     0.21876     0.09743
 PZ  C   3  -0.00016     0.00843     0.01286    -0.09528     0.02824     0.01736
  
  S  C   4  -0.00186     0.02863    -0.00078    -0.00143    -0.00406    -0.01341
 PX  C   4  -0.01453    -0.18759     0.22043    -0.04771     0.11279    -0.19809
 PY  C   4   0.05246    -0.11360    -0.23781    -0.01990    -0.21177    -0.11431
 PZ  C   4  -0.00034     0.00054    -0.00171    -0.05160    -0.04108    -0.01466
  
  S  C   5  -0.01678    -0.01680    -0.02965     0.00654    -0.03025     0.02877
 PX  C   5   0.00404     0.21076    -0.19498     0.04796    -0.08842     0.18940
 PY  C   5  -0.16711     0.10067     0.14230     0.02944     0.08355     0.05988
 PZ  C   5  -0.01373     0.01642     0.02563    -0.22212    -0.05863     0.03819
  
  S  C   6  -0.01796     0.00651     0.01176     0.00526     0.00563    -0.01114
 PX  C   6  -0.07602    -0.20768     0.14333    -0.02777     0.04232    -0.12520
 PY  C   6   0.22817    -0.10175    -0.16939    -0.00588    -0.08061    -0.07349
 PZ  C   6   0.00710     0.00047     0.01891    -0.31109    -0.07236     0.04701
  
  S  C   7  -0.01537     0.07257    -0.02833     0.01405    -0.05202    -0.00358
 PX  C   7   0.03475    -0.09632     0.10799    -0.01859     0.05073    -0.22636
 PY  C   7  -0.14781    -0.06013    -0.06191     0.01202    -0.20559    -0.16002
 PZ  C   7   0.00782     0.00581    -0.03695     0.10451     0.06334    -0.00373
  
  S  C   8   0.00390    -0.05267    -0.00417     0.02271    -0.04827     0.01932
 PX  C   8  -0.15508     0.08463    -0.03713     0.06739    -0.09365     0.21680
 PY  C   8   0.03434     0.13026     0.12016     0.01891     0.16541     0.11731
 PZ  C   8   0.00364     0.00071    -0.01809     0.16141    -0.02354    -0.05044
  
  S  C   9   0.03012     0.05045    -0.01623    -0.00151     0.00550     0.01230
 PX  C   9   0.16035    -0.03533     0.04758    -0.06004     0.12480    -0.22164
 PY  C   9  -0.22881    -0.03203     0.05195     0.03247    -0.28076    -0.12819
 PZ  C   9   0.01030     0.00356    -0.02340     0.34564     0.01345    -0.06669
  
  S  C  10   0.03511    -0.05167    -0.00140    -0.00924    -0.01196    -0.00323
 PX  C  10  -0.13453    -0.02074     0.04962     0.06858    -0.12321     0.23234
 PY  C  10   0.23170     0.07680    -0.00342    -0.05466     0.28287     0.15558
 PZ  C  10   0.04219     0.00498    -0.04879     0.29900     0.12473    -0.04319
  
  S  C  11  -0.02190     0.08866     0.00492     0.00827    -0.04039     0.01295
 PX  C  11   0.10592     0.08182    -0.03331    -0.07412     0.07907    -0.22326
 PY  C  11  -0.07777     0.13948     0.10914     0.05857    -0.16293    -0.11549
 PZ  C  11   0.05953     0.00221    -0.03472     0.12754     0.12338    -0.04464
  
  S  H  12   0.10430    -0.03860    -0.11585    -0.07865     0.19641    -0.00466
  
  S  C  13   0.00909    -0.08279     0.02413     0.00332    -0.05392    -0.01818
 PX  C  13  -0.00464    -0.07475     0.09404     0.08147    -0.08092     0.20930
 PY  C  13   0.11964     0.03571    -0.10745    -0.04349     0.19869     0.13247
 PZ  C  13   0.02994     0.00970     0.01725     0.18474    -0.01664    -0.02821
  
  S  H  14   0.12447     0.03559     0.10782    -0.02532     0.19620     0.01683
  
  S  H  15   0.16248    -0.16901    -0.08685    -0.01680    -0.05517    -0.11501
  
  S  H  16  -0.17430    -0.00576     0.22228     0.00156     0.11338    -0.01014
  
  S  H  17  -0.14895    -0.01868     0.21504    -0.00450     0.11293    -0.02471
  
  S  H  18   0.06839     0.21269    -0.14364     0.02736    -0.04179     0.13044
  
  S  H  19   0.10649     0.04257     0.13222    -0.02129     0.20119     0.00164
  
  S  H  20   0.10171     0.02711    -0.12968    -0.06937     0.20958    -0.00346
  
  S  C  21  -0.02389     0.03567     0.02419     0.00563    -0.03030     0.02076
 PX  C  21  -0.13837     0.22147    -0.14465    -0.07466     0.09003    -0.21433
 PY  C  21   0.14512     0.18822     0.10560     0.00664    -0.07952    -0.07382
 PZ  C  21   0.02161     0.00708     0.03850    -0.22805    -0.03534     0.04599
  
  S  C  22  -0.02783    -0.01932    -0.01034    -0.00098     0.00320    -0.01128
 PX  C  22   0.19693    -0.22000     0.09418     0.04196    -0.03864     0.15316
 PY  C  22  -0.20838    -0.20834    -0.11687     0.01711     0.08068     0.07792
 PZ  C  22  -0.00626    -0.02082     0.04739    -0.29695    -0.07791     0.09049
  
  S  C  23  -0.01151     0.02081     0.00064     0.00445    -0.00385     0.00913
 PX  C  23  -0.12682     0.18222    -0.06944    -0.08832     0.02606    -0.13298
 PY  C  23   0.25739     0.16757     0.13371    -0.01155    -0.08293    -0.03177
 PZ  C  23   0.00135    -0.05359     0.06307    -0.27476    -0.10704     0.11546
  
  S  C  24  -0.01595    -0.02824     0.02472     0.00666    -0.03263    -0.02153
 PX  C  24   0.11508    -0.18047     0.04918     0.05469    -0.01345     0.16206
 PY  C  24  -0.18022    -0.16334    -0.16761    -0.00903     0.13495     0.08331
 PZ  C  24  -0.01469    -0.02816     0.04465    -0.20099    -0.08712     0.06266
  
  S  H  25  -0.19871    -0.05008    -0.15956    -0.03634     0.11360    -0.02458
  
  S  H  26   0.18739    -0.22134     0.09092     0.05411    -0.03434     0.15036
  
  S  H  27   0.13159     0.25448     0.06655    -0.04416    -0.04782    -0.11397
  
  S  H  28  -0.22128    -0.07640    -0.17674    -0.04684     0.12964    -0.01073
  
  S  C  29   0.01692    -0.04612    -0.00616     0.00157     0.00001    -0.00821
 PX  C  29   0.14161    -0.17664     0.15803     0.08356    -0.10370     0.22109
 PY  C  29  -0.04450    -0.13920    -0.20832    -0.07466     0.22158     0.10381
 PZ  C  29   0.05152    -0.00130     0.01529    -0.06303     0.03543     0.00058
  
  S  C  30   0.00403     0.03654    -0.00380    -0.01003    -0.00353     0.01709
 PX  C  30   0.01214     0.11443    -0.12072    -0.10103     0.12414    -0.19452
 PY  C  30   0.10933     0.16864     0.22049     0.06473    -0.20806    -0.07861
 PZ  C  30   0.04079     0.02731     0.06765    -0.03311    -0.07009    -0.02042




    ROOT NO.   37          38          39          40          41          42

           -10.71706    -9.88203    -9.76767    -8.30691    -8.05175    -6.72050
  
  
  S  C   1  -0.00047     0.00546     0.00252    -0.00522     0.00112    -0.00354
 PX  C   1   0.00155    -0.00173     0.00253    -0.00468    -0.00753    -0.00232
 PY  C   1   0.00783    -0.00623    -0.00492     0.00659    -0.00513     0.00684
 PZ  C   1  -0.08851     0.35263     0.13211    -0.24663     0.24315    -0.21757
  
  S  C   2   0.00040    -0.00311    -0.00847     0.01379     0.00286     0.00931
 PX  C   2   0.00163    -0.00425    -0.01007     0.01484     0.00627     0.00814
 PY  C   2  -0.01223    -0.00437    -0.00320     0.01311     0.00226     0.00894
 PZ  C   2  -0.22256     0.10848     0.29361    -0.35402    -0.01285    -0.24015
  
  S  C   3  -0.00239    -0.00859     0.00678    -0.00715    -0.01131    -0.00025
 PX  C   3   0.00496     0.00898    -0.00344    -0.00652    -0.00955    -0.00326
 PY  C   3   0.03757     0.00923    -0.01451    -0.00142     0.01635    -0.00916
 PZ  C   3  -0.24448    -0.26861     0.23115    -0.02773    -0.30580     0.15347
  
  S  C   4  -0.00389     0.00275     0.00033     0.00253     0.00270     0.00640
 PX  C   4   0.00046     0.00275     0.00370     0.00146     0.01137     0.00769
 PY  C   4  -0.03533     0.01476     0.01235     0.00041     0.00685     0.01361
 PZ  C   4   0.25833    -0.27264    -0.21326     0.07140    -0.32861    -0.14055
  
  S  C   5  -0.00221     0.00300    -0.00238     0.00275    -0.00184     0.00033
 PX  C   5  -0.00632    -0.00010     0.00407    -0.00647    -0.00528    -0.00773
 PY  C   5  -0.01405    -0.00647     0.01983    -0.02299     0.00092    -0.01673
 PZ  C   5   0.24137     0.13212    -0.31068     0.35658    -0.00709     0.24981
  
  S  C   6  -0.00113    -0.01008     0.00390    -0.00502    -0.00672    -0.00383
 PX  C   6   0.00232    -0.00249    -0.00099     0.00084     0.00006     0.00120
 PY  C   6  -0.00750    -0.01737     0.00741    -0.00725    -0.01112    -0.00639
 PZ  C   6   0.12561     0.36319    -0.18334     0.21289     0.24558     0.19571
  
  S  C   7  -0.01856    -0.00028     0.00106     0.00638     0.00396     0.00350
 PX  C   7  -0.03012    -0.01927     0.01235     0.01756     0.00730     0.01974
 PY  C   7  -0.01151     0.00943    -0.01134    -0.00388     0.00265    -0.01410
 PZ  C   7  -0.35446    -0.21211     0.18586     0.21482     0.00904     0.36927
  
  S  C   8   0.01024    -0.00738    -0.01528    -0.00639    -0.00763    -0.02471
 PX  C   8  -0.02505     0.01215    -0.00558     0.00533    -0.01180    -0.00598
 PY  C   8   0.03698    -0.01225    -0.00639    -0.00549    -0.00039    -0.01016
 PZ  C   8   0.35623    -0.22767    -0.17919    -0.18926    -0.03106    -0.36265
  
  S  C   9   0.00033    -0.00587     0.00556    -0.00207     0.00663     0.01182
 PX  C   9   0.03930    -0.01628     0.00731    -0.01579     0.02635     0.00540
 PY  C   9  -0.05985     0.01309    -0.01424     0.00804    -0.01217     0.00118
 PZ  C   9   0.24502     0.01146     0.01941    -0.23940     0.35542     0.01633
  
  S  C  10   0.01203    -0.00219    -0.00465    -0.01103    -0.01984    -0.00299
 PX  C  10  -0.02876     0.02220    -0.01708    -0.00129    -0.01388    -0.00560
 PY  C  10   0.06149    -0.01229     0.01289    -0.01368    -0.00797     0.00291
 PZ  C  10  -0.26807     0.02201    -0.03250     0.22836     0.37030    -0.02417
  
  S  C  11  -0.00647     0.00657    -0.00344     0.00209    -0.00093    -0.00479
 PX  C  11   0.04208    -0.03109     0.02707    -0.01584     0.00101     0.02351
 PY  C  11  -0.06977     0.01855    -0.02597     0.01862    -0.00259    -0.02030
 PZ  C  11  -0.30169     0.21465    -0.23175     0.22151    -0.00530    -0.36671
  
  S  H  12   0.06325    -0.01429     0.02124    -0.00981     0.00258     0.00443
  
  S  C  13  -0.02459    -0.00376    -0.01214     0.01345    -0.00258    -0.01878
 PX  C  13  -0.02222     0.00529    -0.01398     0.00814    -0.01481    -0.01252
 PY  C  13   0.02031    -0.01151    -0.00061     0.01178    -0.00707    -0.01789
 PZ  C  13   0.28552     0.21639     0.23078    -0.24540     0.01144     0.38022
  
  S  H  14   0.01769    -0.00426     0.00558    -0.00168     0.00486    -0.00152
  
  S  H  15  -0.00484    -0.00372    -0.00088     0.00450     0.00091     0.00251
  
  S  H  16   0.00935     0.00122    -0.00168    -0.00278     0.00385    -0.00363
  
  S  H  17   0.00219     0.00082     0.00159    -0.00199     0.00397    -0.00158
  
  S  H  18  -0.00094     0.00380     0.00014     0.00023     0.00146     0.00009
  
  S  H  19   0.03231    -0.00794     0.00425     0.00099     0.00865     0.00977
  
  S  H  20   0.04169    -0.00155     0.01707    -0.00578     0.00231     0.00931
  
  S  C  21  -0.01077     0.00158    -0.00859    -0.00017    -0.00338    -0.00369
 PX  C  21   0.02393    -0.00805     0.02758     0.01291     0.00934    -0.00281
 PY  C  21  -0.00444    -0.00529     0.01365     0.01497     0.00414    -0.00932
 PZ  C  21  -0.16558    -0.12895    -0.36494    -0.33556    -0.02617     0.21975
  
  S  C  22  -0.00342    -0.00261    -0.00620    -0.00654     0.00189     0.00568
 PX  C  22  -0.00714    -0.00453    -0.01379    -0.01041     0.00404     0.00622
 PY  C  22   0.00735     0.02373    -0.00141    -0.00117    -0.01506    -0.00128
 PZ  C  22  -0.06891    -0.33934    -0.19914    -0.21279     0.26472     0.17358
  
  S  C  23   0.00177     0.00247     0.00512     0.00280    -0.00215     0.00035
 PX  C  23   0.01036    -0.03874     0.01560     0.02057     0.03131    -0.01932
 PY  C  23  -0.00460    -0.02025     0.00481     0.00668     0.01170    -0.00452
 PZ  C  23   0.09340    -0.31044     0.18707     0.22294     0.27932    -0.18828
  
  S  C  24  -0.00370    -0.00072     0.00876     0.01535     0.00351    -0.01324
 PX  C  24   0.00986     0.01745     0.01449     0.00634    -0.01845     0.00058
 PY  C  24   0.01091     0.01731    -0.02275    -0.03181    -0.01504     0.02258
 PZ  C  24   0.18327    -0.07761     0.37040     0.34268    -0.00448    -0.21964
  
  S  H  25   0.01947     0.00578     0.00808    -0.00050    -0.00176     0.00152
  
  S  H  26  -0.00522     0.00867    -0.00860    -0.00505    -0.00700     0.00120
  
  S  H  27  -0.00277    -0.02259     0.00358     0.00564     0.01401    -0.00505
  
  S  H  28   0.01581     0.00434    -0.00827    -0.01547    -0.00536     0.00987
  
  S  C  29   0.00258    -0.01679     0.00957     0.00270     0.02396     0.00848
 PX  C  29  -0.01545     0.00974    -0.01225    -0.00193    -0.00438    -0.00216
 PY  C  29   0.06799    -0.01499     0.02581    -0.01047     0.01405     0.01130
 PZ  C  29  -0.18905     0.25002    -0.25365    -0.04291    -0.37027    -0.12395
  
  S  C  30   0.01387     0.00140     0.01316    -0.00122    -0.01159     0.00848
 PX  C  30   0.01505    -0.02957    -0.00504    -0.00414     0.02901    -0.00720
 PY  C  30  -0.06389    -0.02936    -0.03683     0.00571     0.04383    -0.01781
 PZ  C  30   0.17800     0.26458     0.26979     0.03856    -0.34501     0.13790




    ROOT NO.   43          44          45          46          47          48

            -1.01588     0.21051     0.29650     1.33751     1.36898     1.91510
  
  
  S  C   1  -0.00049    -0.00276    -0.00098     0.00303    -0.01056     0.00335
 PX  C   1  -0.00834    -0.00271     0.00835    -0.00617    -0.00572     0.00627
 PY  C   1  -0.00376    -0.01008     0.00445    -0.00105    -0.01671     0.00168
 PZ  C   1   0.21865     0.23532    -0.24680     0.13384     0.35715    -0.07512
  
  S  C   2   0.00932     0.00627    -0.01089     0.00971     0.02020    -0.01797
 PX  C   2   0.00912     0.00374    -0.00966     0.00767     0.00827    -0.00755
 PY  C   2   0.00716     0.00508    -0.00647     0.00297     0.01115    -0.00534
 PZ  C   2  -0.24650     0.01462     0.33665    -0.31446    -0.12858     0.20743
  
  S  C   3  -0.00757    -0.01657     0.00196     0.01005    -0.03064     0.00369
 PX  C   3  -0.00613    -0.00283     0.00030     0.00721    -0.00118    -0.00665
 PY  C   3   0.01410     0.01140    -0.00506    -0.00944     0.00651     0.01399
 PZ  C   3  -0.15664    -0.30378    -0.00793     0.26720    -0.25005    -0.25428
  
  S  C   4  -0.00590     0.00574    -0.00184     0.00142     0.02946    -0.01704
 PX  C   4   0.00002    -0.00126     0.00033    -0.00244     0.00415    -0.00244
 PY  C   4  -0.00999    -0.01300     0.00792     0.00123    -0.00679    -0.00877
 PZ  C   4  -0.14325     0.33571    -0.08303     0.22144     0.28345    -0.24483
  
  S  C   5   0.00113    -0.00444     0.00149     0.00277    -0.01854     0.00387
 PX  C   5   0.00374     0.00001    -0.00109     0.00287    -0.00744     0.00043
 PY  C   5   0.01361     0.00099    -0.01736     0.01642    -0.00291    -0.01112
 PZ  C   5  -0.24891     0.01905     0.33229    -0.33627     0.12312     0.23409
  
  S  C   6  -0.00798     0.01006     0.00558    -0.00616     0.02365    -0.00241
 PX  C   6  -0.00074     0.00083    -0.00040    -0.00003     0.00243    -0.00107
 PY  C   6  -0.01049     0.01137     0.00821    -0.00828     0.01718     0.00375
 PZ  C   6   0.20357    -0.25817    -0.18877     0.20574    -0.35365    -0.12822
  
  S  C   7   0.00702     0.01181    -0.00187    -0.01262     0.02090     0.00135
 PX  C   7   0.01583    -0.00026    -0.00776    -0.00553     0.00358     0.00706
 PY  C   7  -0.01628     0.00719     0.01380     0.00745    -0.00504    -0.02727
 PZ  C   7   0.37516    -0.01920    -0.22394    -0.19086     0.19112     0.34863
  
  S  C   8   0.02379    -0.00635    -0.01262    -0.01440    -0.04211     0.06100
 PX  C   8  -0.00078     0.00007     0.00215     0.00459    -0.00297     0.00107
 PY  C   8   0.00954     0.00041    -0.00521    -0.00471    -0.00256     0.01211
 PZ  C   8   0.35700    -0.04892    -0.18932    -0.17307    -0.23144     0.33117
  
  S  C   9  -0.00976     0.00768     0.00077     0.00185     0.03245    -0.03971
 PX  C   9   0.00315    -0.00838     0.00067    -0.00874    -0.00224     0.00426
 PY  C   9  -0.01562     0.00383    -0.02132     0.00731     0.00397     0.02137
 PZ  C   9   0.00977    -0.34473     0.26610    -0.02628     0.00412    -0.26211
  
  S  C  10  -0.00009    -0.02577    -0.01572     0.00814    -0.01980     0.04205
 PX  C  10  -0.00556    -0.00291    -0.00434     0.00428     0.00141     0.00875
 PY  C  10   0.00887    -0.00873    -0.00561    -0.00579    -0.00355     0.01948
 PZ  C  10   0.02076     0.37957     0.21040    -0.04880     0.01640    -0.28015
  
  S  C  11  -0.00096    -0.00016     0.00776    -0.01372     0.02236    -0.04485
 PX  C  11   0.02416    -0.01441     0.00568    -0.01688     0.01220    -0.01212
 PY  C  11  -0.01238    -0.00834    -0.00806     0.00429     0.00008     0.00531
 PZ  C  11  -0.35434    -0.00248    -0.19744     0.25037    -0.20101     0.31944
  
  S  H  12  -0.00082     0.00062    -0.00324     0.01010    -0.01646     0.02947
  
  S  C  13   0.02449    -0.00292     0.02613    -0.00104    -0.02861     0.00254
 PX  C  13   0.01329     0.00168     0.01310     0.00863    -0.00587     0.00377
 PY  C  13   0.01927     0.00244     0.01162    -0.01188    -0.00561    -0.02356
 PZ  C  13  -0.36042     0.00342    -0.22067     0.23338     0.20168     0.30690
  
  S  H  14  -0.00176    -0.00339     0.00546     0.00481    -0.01173    -0.00729
  
  S  H  15   0.00055     0.00208     0.00135    -0.00373     0.00585    -0.00013
  
  S  H  16  -0.00045    -0.00166     0.00543    -0.01002    -0.01069     0.01498
  
  S  H  17   0.00294     0.00177    -0.00160    -0.00377     0.00739     0.00244
  
  S  H  18   0.00503    -0.00673    -0.00260     0.00239    -0.01708     0.00350
  
  S  H  19  -0.00924     0.00446     0.01349     0.00893     0.02620    -0.04725
  
  S  H  20  -0.00967     0.00198    -0.01000     0.00433     0.01277     0.00578
  
  S  C  21   0.00368    -0.00994     0.00491    -0.00358     0.01994    -0.01509
 PX  C  21  -0.00692     0.00393    -0.00678     0.00282    -0.00774     0.00944
 PY  C  21  -0.00617    -0.00427    -0.01018    -0.00980    -0.00045    -0.00539
 PZ  C  21   0.23141     0.03565     0.35641     0.31957     0.14606     0.16314
  
  S  C  22  -0.00374     0.00747    -0.00744    -0.00300    -0.01745     0.00795
 PX  C  22  -0.00332     0.00771    -0.00469    -0.00494    -0.00791    -0.00499
 PY  C  22   0.00680    -0.00555     0.00975     0.00715     0.00950     0.00272
 PZ  C  22  -0.17568     0.25165    -0.22538    -0.15235    -0.35372    -0.06328
  
  S  C  23  -0.00512    -0.00101    -0.01277    -0.01806     0.01316    -0.02133
 PX  C  23  -0.01286    -0.02407    -0.00929    -0.00263     0.02124     0.00346
 PY  C  23  -0.00322    -0.00200    -0.00491    -0.00506     0.00084    -0.00224
 PZ  C  23  -0.20685    -0.28385    -0.23478    -0.18262     0.30679    -0.09229
  
  S  C  24   0.01007    -0.00217     0.02786     0.04188    -0.01563     0.04481
 PX  C  24   0.01121     0.00651     0.01009     0.00430    -0.00231    -0.00228
 PY  C  24  -0.01034     0.00306    -0.02475    -0.02709     0.00595    -0.01872
 PZ  C  24   0.22875     0.01656     0.36927     0.34082    -0.06057     0.18472
  
  S  H  25   0.00002     0.00418     0.00067     0.00291    -0.00982     0.00729
  
  S  H  26   0.00595    -0.00284     0.00913     0.00450     0.00988    -0.00456
  
  S  H  27   0.00282     0.00011     0.01050     0.01459    -0.00988     0.01485
  
  S  H  28  -0.00253     0.00054    -0.01279    -0.02612     0.00824    -0.03063
  
  S  C  29  -0.01020     0.02391     0.00014     0.03074    -0.03025     0.04671
 PX  C  29  -0.00394     0.00694    -0.00415    -0.00567    -0.00459    -0.00845
 PY  C  29  -0.00435     0.01464     0.00821     0.01651    -0.00979     0.00987
 PZ  C  29   0.11762    -0.37148    -0.05039    -0.25864     0.24823    -0.19828
  
  S  C  30  -0.00192     0.00308    -0.02263    -0.03925     0.02040    -0.04558
 PX  C  30  -0.00207    -0.02183     0.00335    -0.00717     0.01171    -0.01074
 PY  C  30  -0.02096    -0.02228    -0.00182     0.02288     0.01773     0.02303
 PZ  C  30   0.13855     0.34343    -0.07438    -0.26270    -0.28316    -0.20571




    ROOT NO.   49          50          51          52          53          54

             2.39505     2.51359     2.81981     3.13148     3.31006     3.39415
  
  
  S  C   1   0.03000     0.11261    -0.18076    -0.12487    -0.13554     0.23600
 PX  C   1   0.00506     0.01798    -0.01466     0.01108     0.04448     0.04504
 PY  C   1  -0.00629     0.02794    -0.03026    -0.03941    -0.04830    -0.01439
 PZ  C   1   0.28788    -0.13862    -0.09526     0.19939    -0.12553     0.00118
  
  S  C   2  -0.04054    -0.14554     0.20735     0.09071     0.05395    -0.24744
 PX  C   2  -0.00333    -0.01486     0.00125    -0.02379    -0.04995     0.02471
 PY  C   2  -0.01461    -0.04346     0.04807    -0.00110    -0.01388    -0.01934
 PZ  C   2  -0.22462     0.10148     0.09315    -0.21608     0.13966    -0.00622
  
  S  C   3   0.08504     0.20562    -0.26998    -0.03663    -0.00184     0.17216
 PX  C   3   0.01285    -0.00379     0.03962     0.05153     0.10248     0.02491
 PY  C   3   0.01551     0.03551    -0.03190    -0.00788    -0.01548    -0.10678
 PZ  C   3   0.06874    -0.05120    -0.04669     0.26625    -0.17254    -0.02869
  
  S  C   4  -0.08743    -0.22257     0.27355     0.07663     0.13067     0.12401
 PX  C   4  -0.01508    -0.01872    -0.00537    -0.03943    -0.08052    -0.00253
 PY  C   4   0.00303     0.01394    -0.05987    -0.01411    -0.01927     0.13950
 PZ  C   4  -0.02213     0.06391     0.04368    -0.25478     0.17020     0.00231
  
  S  C   5   0.05427     0.16050    -0.22366    -0.12688    -0.20931    -0.05859
 PX  C   5   0.02410     0.05140    -0.04884     0.00414     0.00226    -0.06250
 PY  C   5  -0.00768    -0.00596     0.02593     0.01851     0.04394    -0.03253
 PZ  C   5   0.18677    -0.11853    -0.07457     0.20477    -0.12980     0.00511
  
  S  C   6  -0.02378    -0.12934     0.19140     0.16222     0.22783    -0.06549
 PX  C   6  -0.00984    -0.02152     0.02817     0.00697     0.00630    -0.01321
 PY  C   6   0.00265    -0.02029     0.00648     0.00438     0.00977     0.09185
 PZ  C   6  -0.27435     0.13776     0.09979    -0.18761     0.13371    -0.00450
  
  S  C   7  -0.10386    -0.18252     0.16815    -0.04786    -0.19113    -0.15205
 PX  C   7  -0.00679     0.00996    -0.06272    -0.04467    -0.08438     0.03224
 PY  C   7  -0.03619    -0.02788    -0.00359    -0.02808    -0.09084     0.00668
 PZ  C   7   0.09017    -0.07531     0.00100    -0.12561     0.09214     0.02868
  
  S  C   8   0.09958     0.21618    -0.17245     0.01703     0.02720    -0.31534
 PX  C   8   0.03160     0.01180     0.05188     0.03916     0.08616    -0.06330
 PY  C   8  -0.00947    -0.02415     0.05270     0.03324     0.04971    -0.03073
 PZ  C   8  -0.16456     0.02478     0.01749     0.11704    -0.11014     0.01894
  
  S  C   9  -0.15106    -0.21247     0.06862    -0.07651    -0.19239     0.32803
 PX  C   9  -0.01915     0.00234    -0.07010    -0.02118    -0.05679    -0.06025
 PY  C   9  -0.01062     0.01277    -0.05121     0.02733     0.09922     0.08379
 PZ  C   9   0.30465    -0.17244    -0.04108     0.02866     0.04446     0.04192
  
  S  C  10   0.14936     0.18957    -0.07594     0.12112     0.34700     0.03122
 PX  C  10   0.00539    -0.01468     0.06718     0.01749     0.01406     0.09868
 PY  C  10   0.02509     0.01419     0.02538     0.01391     0.01499    -0.14916
 PZ  C  10  -0.24327     0.22167     0.03648    -0.01709    -0.00062    -0.04431
  
  S  C  11  -0.14106    -0.18149    -0.06198    -0.12222    -0.25609    -0.17109
 PX  C  11   0.00646     0.01940    -0.06966     0.00508     0.08297    -0.04371
 PY  C  11  -0.02250    -0.03775    -0.05587    -0.00553     0.00502    -0.04151
 PZ  C  11   0.08795    -0.12545    -0.04951     0.15034    -0.04028     0.03650
  
  S  H  12   0.08020     0.09735     0.04079     0.07255     0.13422     0.05447
  
  S  C  13   0.16435     0.18392     0.08385     0.03293     0.04765    -0.25484
 PX  C  13   0.03657     0.02073     0.09636    -0.01548    -0.06061     0.03619
 PY  C  13  -0.01361    -0.03957     0.03291    -0.00877    -0.04829     0.06610
 PZ  C  13  -0.14036     0.08448     0.03315    -0.14832     0.02745    -0.05663
  
  S  H  14   0.05532     0.10512    -0.10245     0.02451     0.10292     0.05667
  
  S  H  15  -0.02119    -0.06895     0.11205     0.07165     0.07673    -0.15938
  
  S  H  16   0.01699     0.08156    -0.11984    -0.06621    -0.05113     0.12810
  
  S  H  17  -0.02827    -0.08460     0.12802     0.07472     0.12079     0.00437
  
  S  H  18   0.01379     0.08623    -0.12436    -0.10992    -0.15511     0.03026
  
  S  H  19  -0.05127    -0.12912     0.11375    -0.02557    -0.04475     0.18641
  
  S  H  20  -0.08211    -0.09152    -0.04358    -0.03093    -0.05600     0.10688
  
  S  C  21  -0.11724    -0.12873    -0.17994    -0.02123    -0.03151    -0.27528
 PX  C  21   0.03704     0.05078     0.03008     0.03972     0.06531     0.04234
 PY  C  21  -0.00215    -0.00602    -0.02039     0.01031     0.03941    -0.00311
 PZ  C  21  -0.22032     0.13854    -0.00472     0.25970    -0.08155     0.03529
  
  S  C  22   0.10197     0.09302     0.18403    -0.04894    -0.10357     0.19210
 PX  C  22  -0.01628    -0.03128    -0.03607    -0.00286     0.01273    -0.01369
 PY  C  22  -0.00449     0.00099     0.02064    -0.02921    -0.08465    -0.07281
 PZ  C  22   0.26916    -0.21107    -0.02152    -0.24571     0.08205    -0.03263
  
  S  C  23  -0.12808    -0.10843    -0.23017     0.10687     0.23118     0.00064
 PX  C  23   0.01317     0.04525     0.04143     0.00674    -0.03817    -0.06556
 PY  C  23   0.00564     0.01165     0.01683     0.00765     0.00937     0.06954
 PZ  C  23  -0.23340     0.22314     0.03835     0.23367    -0.08999     0.01744
  
  S  C  24   0.17998     0.16989     0.29342    -0.09104    -0.24083    -0.10666
 PX  C  24  -0.01658    -0.03508    -0.01061    -0.02988    -0.02837     0.04579
 PY  C  24  -0.03336    -0.01924    -0.00562    -0.00436    -0.04347     0.01934
 PZ  C  24   0.13862    -0.18325    -0.04856    -0.24112     0.10616    -0.00670
  
  S  H  25   0.07037     0.07521     0.11783     0.00305     0.00058     0.16166
  
  S  H  26  -0.06215    -0.05948    -0.11196     0.02537     0.05870    -0.12581
  
  S  H  27   0.08284     0.06293     0.13711    -0.07418    -0.14230    -0.01674
  
  S  H  28  -0.11588    -0.11481    -0.21255     0.06103     0.18000     0.04620
  
  S  C  29   0.15877     0.20375     0.20652     0.09176     0.10601     0.22768
 PX  C  29  -0.01941    -0.03133     0.00761    -0.01340    -0.02753     0.07342
 PY  C  29   0.02196     0.02162     0.07320    -0.02162    -0.10455    -0.08563
 PZ  C  29   0.09175     0.00468     0.05614    -0.29490     0.09921    -0.02374
  
  S  C  30  -0.20035    -0.21676    -0.25541     0.00301     0.07419     0.10581
 PX  C  30  -0.00446    -0.00295    -0.06820    -0.00131     0.03823    -0.12248
 PY  C  30   0.00190     0.01694    -0.01669     0.03938     0.11324     0.10248
 PZ  C  30  -0.02099     0.05980    -0.00076     0.29902    -0.09213     0.03803




    ROOT NO.   55          56          57          58          59          60

             3.55784     3.70825     3.76389     3.82201     4.18187     4.22261
  
  
  S  C   1  -0.19247     0.11566    -0.15408     0.25366     0.14882    -0.06049
 PX  C   1   0.07196    -0.05281     0.08211     0.05293     0.10565    -0.08133
 PY  C   1  -0.06626     0.03473    -0.05513    -0.04489    -0.07373     0.03200
 PZ  C   1   0.08243     0.08764    -0.02509     0.01810    -0.00028    -0.00204
  
  S  C   2  -0.00960     0.02564    -0.08144    -0.22969    -0.28110     0.20120
 PX  C   2  -0.10250     0.07093    -0.11110     0.06004     0.00951     0.00540
 PY  C   2  -0.06623     0.04048    -0.07750     0.03661     0.04294    -0.03736
 PZ  C   2  -0.11566    -0.11266     0.02503    -0.03464    -0.01574     0.01644
  
  S  C   3   0.22305    -0.14386     0.29850     0.02114     0.07604     0.02057
 PX  C   3   0.03323    -0.01110    -0.02562     0.05235    -0.08072     0.16870
 PY  C   3   0.03662    -0.03539     0.04964    -0.16895    -0.11146     0.03001
 PZ  C   3   0.18267     0.20324    -0.06680     0.03615    -0.00883    -0.00620
  
  S  C   4  -0.12149     0.09264    -0.19905     0.27492     0.06267     0.05436
 PX  C   4  -0.09432     0.06040    -0.06431    -0.07171    -0.13021     0.10480
 PY  C   4   0.06971    -0.03565     0.13368     0.03989     0.00589     0.10237
 PZ  C   4  -0.18904    -0.19730     0.04877    -0.04851     0.00689    -0.01969
  
  S  C   5  -0.11188     0.05671    -0.03079    -0.23337    -0.25829     0.18394
 PX  C   5   0.09611    -0.06717     0.12128    -0.08634     0.03233    -0.03746
 PY  C   5   0.05819    -0.04549     0.06029    -0.04141    -0.01634     0.01481
 PZ  C   5   0.10793     0.10792    -0.02412     0.02386    -0.00518     0.01189
  
  S  C   6   0.28075    -0.16594     0.23438     0.00090     0.12465    -0.07181
 PX  C   6  -0.01381     0.01122    -0.02565    -0.00515    -0.01269    -0.01398
 PY  C   6  -0.02520     0.02460    -0.03881     0.14945     0.12834    -0.07679
 PZ  C   6  -0.06830    -0.09338     0.03383    -0.01326     0.01348    -0.01070
  
  S  C   7  -0.17319     0.11314    -0.08589    -0.14072     0.08855    -0.33179
 PX  C   7   0.04620    -0.03789     0.13401    -0.03293     0.07662    -0.05810
 PY  C   7   0.02799     0.00284     0.09225    -0.02249     0.02850     0.04020
 PZ  C   7  -0.17283    -0.18282     0.05295    -0.03451     0.00681     0.02369
  
  S  C   8   0.06583    -0.05813    -0.09100    -0.14316     0.07059    -0.32827
 PX  C   8  -0.04696     0.00784    -0.10334     0.10577     0.04845     0.07063
 PY  C   8  -0.01668     0.02286    -0.09085     0.06027     0.04909    -0.09085
 PZ  C   8   0.17814     0.19076    -0.02475     0.05674    -0.01232     0.06401
  
  S  C   9   0.04469     0.02414     0.25365    -0.07103    -0.11482    -0.02097
 PX  C   9   0.03591    -0.02901    -0.00647    -0.09602    -0.00634    -0.18718
 PY  C   9   0.05189    -0.03507    -0.08279     0.04867    -0.15618    -0.03646
 PZ  C   9  -0.24199    -0.23960     0.04202    -0.05125     0.00171    -0.02870
  
  S  C  10   0.02396    -0.04594    -0.22462     0.17744    -0.15142     0.08288
 PX  C  10  -0.03921     0.05306     0.02307    -0.04567    -0.11583    -0.11975
 PY  C  10  -0.06368     0.01766    -0.10465    -0.02895     0.07187    -0.09410
 PZ  C  10   0.24321     0.23550    -0.07253     0.06326    -0.02671    -0.00329
  
  S  C  11   0.05276    -0.09415     0.04541    -0.02510     0.29119     0.19979
 PX  C  11   0.04256    -0.05722    -0.10074     0.10690    -0.00033     0.06835
 PY  C  11   0.01897    -0.06332    -0.05246     0.05605    -0.04622    -0.01094
 PZ  C  11  -0.17489    -0.18582     0.02691    -0.02858     0.02400     0.02222
  
  S  H  12  -0.05394     0.05503    -0.02504     0.03286    -0.22209    -0.18995
  
  S  C  13  -0.13213     0.10013     0.02944     0.02930     0.30485     0.25939
 PX  C  13  -0.03556     0.05900     0.13575     0.00409    -0.00621    -0.01355
 PY  C  13  -0.00920     0.00887     0.08161    -0.00974     0.03303     0.03378
 PZ  C  13   0.16404     0.18139    -0.02113     0.02692     0.02575     0.03784
  
  S  H  14   0.11844    -0.07785     0.06676     0.07012    -0.06968     0.30379
  
  S  H  15   0.11036    -0.06967     0.08940    -0.17364    -0.09387     0.01293
  
  S  H  16  -0.00974    -0.01253     0.04522     0.12856     0.20642    -0.17979
  
  S  H  17   0.06514    -0.03449     0.00962     0.13399     0.19155    -0.16916
  
  S  H  18  -0.19463     0.11492    -0.16756    -0.00870    -0.07866     0.01881
  
  S  H  19  -0.07470     0.04825     0.07734     0.07786    -0.05938     0.33602
  
  S  H  20   0.08039    -0.07253    -0.01489    -0.00589    -0.22607    -0.22296
  
  S  C  21  -0.05316    -0.05716     0.12763     0.34586    -0.17923    -0.02440
 PX  C  21  -0.07232     0.12102     0.12578    -0.00651    -0.05101    -0.03489
 PY  C  21  -0.03438     0.06627     0.04755    -0.02628     0.03008     0.00392
 PZ  C  21  -0.10495    -0.11419     0.00042    -0.02031     0.01601     0.00949
  
  S  C  22   0.17893    -0.19166    -0.28841    -0.16318     0.05362     0.00922
 PX  C  22  -0.00109    -0.00419     0.00056     0.02098    -0.03893    -0.02256
 PY  C  22   0.03361    -0.10022    -0.02030     0.12341    -0.05541     0.00698
 PZ  C  22   0.07749     0.09441     0.00986     0.01735    -0.01208    -0.00623
  
  S  C  23  -0.17004     0.25872     0.19717    -0.07496    -0.01172    -0.05422
 PX  C  23  -0.04605     0.02641     0.11425     0.10982    -0.08809    -0.04184
 PY  C  23   0.02797    -0.01657    -0.06473    -0.07870     0.01046    -0.01714
 PZ  C  23  -0.07767    -0.09349    -0.00376    -0.00654     0.01749     0.01221
  
  S  C  24   0.02598    -0.09201     0.12247     0.25126    -0.16972    -0.06144
 PX  C  24   0.09177    -0.11427    -0.15120    -0.02917     0.02779     0.03220
 PY  C  24   0.04810    -0.09310    -0.04098     0.07842    -0.12208    -0.04781
 PZ  C  24   0.10970     0.11418    -0.02412    -0.01502    -0.00399    -0.00550
  
  S  H  25   0.03795     0.03591    -0.09235    -0.25466     0.18649     0.05052
  
  S  H  26  -0.10998     0.12300     0.17251     0.07979     0.02159     0.02679
  
  S  H  27   0.10785    -0.16000    -0.13689     0.03161     0.06936     0.07825
  
  S  H  28  -0.02753     0.08052    -0.10621    -0.21953     0.22691     0.10630
  
  S  C  29  -0.10707     0.23051     0.15749    -0.18305    -0.03918    -0.09559
 PX  C  29   0.04784    -0.03029    -0.08586    -0.13449     0.09837     0.02820
 PY  C  29  -0.04656     0.03314     0.11301     0.01165     0.11458     0.07167
 PZ  C  29   0.17164     0.21307    -0.00204     0.00279    -0.01668    -0.02087
  
  S  C  30   0.14613    -0.18553    -0.27251    -0.03618    -0.09492    -0.04984
 PX  C  30  -0.02331     0.00686    -0.04065     0.00372     0.14374     0.12191
 PY  C  30  -0.03565     0.12298     0.01410    -0.14982     0.04293    -0.01911
 PZ  C  30  -0.19056    -0.17055     0.03861    -0.01755     0.01640     0.00531




    ROOT NO.   61          62          63          64          65          66

             5.12591     5.32486     5.36744     5.60433     6.08045     6.38880
  
  
  S  C   1  -0.05357    -0.05808    -0.28491    -0.12508    -0.10677     0.03277
 PX  C   1   0.07063    -0.05714     0.08980     0.15666     0.16455    -0.04364
 PY  C   1  -0.00699     0.10560     0.24324     0.03522     0.04540    -0.02205
 PZ  C   1   0.00367     0.00381     0.01909     0.00795     0.00760    -0.00275
  
  S  C   2  -0.09636     0.07778    -0.11513    -0.18583    -0.17703     0.05096
 PX  C   2  -0.04975    -0.02324    -0.20063    -0.11100    -0.10786     0.04087
 PY  C   2   0.01191    -0.01609     0.06120     0.10567     0.20786    -0.08484
 PZ  C   2  -0.01031     0.00449    -0.01556    -0.01441    -0.00948     0.00237
  
  S  C   3   0.04137    -0.00070     0.06586    -0.01790    -0.14215     0.06514
 PX  C   3  -0.11872     0.10970    -0.00859    -0.10841     0.07650    -0.09085
 PY  C   3   0.00061     0.01052    -0.03721    -0.07388    -0.19884     0.11932
 PZ  C   3   0.00761    -0.00477     0.00244     0.00650     0.00081     0.00322
  
  S  C   4  -0.07368     0.04596    -0.00502     0.00039     0.19171    -0.13435
 PX  C   4   0.05743    -0.08891    -0.04820     0.11293     0.12843    -0.04243
 PY  C   4   0.06721    -0.03653     0.08274     0.04358    -0.13216     0.09237
 PZ  C   4  -0.00716     0.00565    -0.00118    -0.00497    -0.00070    -0.00126
  
  S  C   5   0.08676    -0.14887    -0.12298     0.15043     0.17588    -0.05837
 PX  C   5   0.03606    -0.02818     0.00259    -0.01732    -0.17050     0.11836
 PY  C   5   0.04508    -0.13078    -0.18142     0.08606     0.16505    -0.08084
 PZ  C   5   0.00526    -0.00694    -0.00443     0.00515     0.00370    -0.00092
  
  S  C   6   0.06094    -0.15990    -0.21786     0.06078     0.04810    -0.00417
 PX  C   6  -0.03973     0.17384     0.29988    -0.04641    -0.07629     0.02063
 PY  C   6  -0.05618     0.04604    -0.05380    -0.12462    -0.14364     0.04790
 PZ  C   6  -0.00113    -0.00598    -0.01662    -0.00374    -0.00364     0.00146
  
  S  C   7   0.17272    -0.14899     0.00343     0.12933    -0.09153     0.09784
 PX  C   7   0.05073    -0.04421    -0.00137    -0.00443    -0.11124     0.05776
 PY  C   7  -0.05249     0.05990    -0.00121    -0.13189     0.05820    -0.21957
 PZ  C   7  -0.01949     0.01249    -0.00469    -0.01538     0.00846    -0.01549
  
  S  C   8  -0.12851     0.10521    -0.07507    -0.12250     0.05697    -0.07144
 PX  C   8   0.00314    -0.06053     0.01766     0.09835    -0.00986     0.13585
 PY  C   8  -0.09452     0.07464    -0.07552    -0.09490     0.17978    -0.23551
 PZ  C   8   0.02378    -0.02032     0.01142     0.01886    -0.01237     0.01326
  
  S  C   9   0.04123     0.07790    -0.00239    -0.12675    -0.00202    -0.17027
 PX  C   9  -0.10073     0.08863    -0.05337    -0.09195     0.06253    -0.06906
 PY  C   9  -0.04906     0.05010    -0.02331     0.09050     0.06427     0.20613
 PZ  C   9  -0.01568     0.01218    -0.00638    -0.00201     0.00912     0.00737
  
  S  C  10  -0.00028    -0.00603     0.00968     0.14482     0.02751     0.18312
 PX  C  10   0.16287    -0.04256     0.02259    -0.01778    -0.09407    -0.12285
[...]
  S   H   18   -0.0906    0.0248   -0.0189   -0.0488    0.0274    0.0009    0.2881   -0.0605
  S   H   19   -0.1463    0.2304    0.1521    0.2039    0.0685   -0.0145    0.0482    0.1598
  S   H   20    0.1568    0.2804    0.3403   -0.0405    0.1050    0.0664   -0.0150   -0.2040
  S   C   21    0.0778    0.0394   -0.0286    0.0047   -0.0037    0.0558    0.0006   -0.0124
  Px  C   21    0.1026    0.0971   -0.2557    0.1907    0.1376   -0.0922    0.0009    0.0996
  Py  C   21   -0.1105   -0.0832    0.0885   -0.0625   -0.0404    0.2624    0.0022    0.0194
  Pz  C   21   -0.0034   -0.0020   -0.0023    0.0013    0.0006    0.0068    0.0001    0.0044
  S   C   22    0.0464    0.0189    0.0506   -0.0309   -0.0205   -0.1011   -0.0011   -0.0445
  Px  C   22    0.0643    0.0317    0.0375   -0.0212   -0.0102    0.4954    0.0060    0.1615
  Py  C   22    0.0525    0.0273   -0.0571    0.0388    0.0283   -0.0819   -0.0002   -0.0375
  Pz  C   22   -0.0026   -0.0013   -0.0035    0.0023    0.0016   -0.0158   -0.0002   -0.0051
  S   C   23   -0.0232   -0.0121    0.0527   -0.0318   -0.0208    0.1325    0.0012    0.0295
  Px  C   23   -0.0490   -0.0216    0.0193   -0.0148   -0.0056   -0.2560   -0.0029    0.0112
  Py  C   23    0.0130    0.0043    0.0942   -0.0645   -0.0420   -0.4426   -0.0044   -0.1206
  Pz  C   23    0.0035    0.0021    0.0021   -0.0016   -0.0015    0.0224    0.0002    0.0001
  S   C   24   -0.0375   -0.0142    0.0188   -0.0271   -0.0241   -0.0941    0.0001    0.0467
  Px  C   24    0.0227    0.0157   -0.0672    0.0506    0.0406   -0.2075   -0.0024   -0.0082
  Py  C   24   -0.1458   -0.1247   -0.2624    0.1961    0.1341    0.2051   -0.0022   -0.1375
  Pz  C   24   -0.0078   -0.0087   -0.0194    0.0154    0.0105    0.0202    0.0000   -0.0104
  S   H   25   -0.1510   -0.1069    0.1722   -0.1173   -0.0776    0.1662    0.0008   -0.0154
  S   H   26   -0.0839   -0.0419   -0.0326    0.0152    0.0058   -0.3108   -0.0039   -0.1027
  S   H   27    0.0272    0.0156   -0.0745    0.0474    0.0278    0.3013    0.0032    0.0533
  S   H   28    0.1161    0.0866    0.1428   -0.1017   -0.0656   -0.1410    0.0006    0.0601
  S   C   29    0.1261    0.1180   -0.2026    0.1706    0.1391   -0.0011   -0.0007    0.0174
  Px  C   29   -0.0451   -0.0224   -0.0367    0.0649    0.0664   -0.0930    0.0020    0.1350
  Py  C   29    0.1496    0.1576    0.0865   -0.0916   -0.0819   -0.0134   -0.0004    0.1337
  Pz  C   29    0.0151    0.0155   -0.0079    0.0122    0.0143   -0.0010   -0.0000    0.0087
  S   C   30   -0.1345   -0.1146   -0.2000    0.1678    0.1293   -0.0245   -0.0005   -0.0164
  Px  C   30   -0.1098   -0.1353    0.0284   -0.0376   -0.0456    0.0908   -0.0016   -0.2257
  Py  C   30    0.0998    0.0975   -0.0972    0.1205    0.1210    0.0646   -0.0044   -0.0617
  Pz  C   30    0.0139    0.0117    0.0007   -0.0032   -0.0029    0.0120   -0.0006   -0.0134


   Root No.      73        74        75        76        77        78        79        80

                73 ????   11 ag     10 au     11 bu     10 bg     11 au     12 au     11 bg  

                 9.308     9.535    10.128    10.686    11.038    11.542    11.800    12.113
  
  S   C    1    0.0306    0.0734   -0.0499   -0.0689    0.0470    0.0248    0.0149   -0.0036
  Px  C    1    0.1229    0.2659    0.1051   -0.2130   -0.1354   -0.0625   -0.1768    0.1645
  Py  C    1    0.0496    0.1195   -0.2339   -0.0763    0.2057    0.0957    0.1430   -0.1129
  Pz  C    1    0.0024    0.0053   -0.0056   -0.0035    0.0043    0.0018    0.0025   -0.0018
  S   C    2   -0.0627   -0.1072   -0.0844    0.0378    0.0793    0.0495    0.0268   -0.0045
  Px  C    2    0.1228    0.2689    0.0373   -0.2353   -0.0471   -0.0038   -0.1457    0.1643
  Py  C    2   -0.1678   -0.2235   -0.2134   -0.0310    0.1688    0.1280   -0.0361    0.0975
  Pz  C    2   -0.0038   -0.0025   -0.0079   -0.0062    0.0057    0.0048   -0.0043    0.0066
  S   C    3   -0.0175   -0.0590   -0.0094    0.0622    0.0118   -0.0008    0.0232   -0.0246
  Px  C    3   -0.1467   -0.1845   -0.2294   -0.0779   -0.0351   -0.2019    0.0891   -0.1914
  Py  C    3   -0.0715   -0.0597   -0.1540   -0.0660    0.2444    0.2938   -0.1511    0.2960
  Pz  C    3   -0.0022    0.0002   -0.0055   -0.0056    0.0103    0.0138   -0.0075    0.0151
  S   C    4   -0.0170   -0.0527    0.0040    0.0563   -0.0408   -0.0242   -0.0246    0.0131
  Px  C    4   -0.0857   -0.1160    0.2956   -0.0971   -0.1938   -0.1305    0.1103   -0.1954
  Py  C    4   -0.0641   -0.1430    0.1265    0.0490    0.1315    0.3112   -0.1417    0.2843
  Pz  C    4   -0.0033   -0.0062    0.0074    0.0001    0.0018    0.0077   -0.0029    0.0061
  S   C    5   -0.0462   -0.0861    0.0767    0.0317   -0.0866   -0.0497   -0.0325    0.0097
  Px  C    5   -0.0534   -0.0490    0.2163   -0.1428   -0.1074   -0.0825    0.1362   -0.2070
  Py  C    5    0.1658    0.3099   -0.0927   -0.1758    0.1679    0.0955    0.1423   -0.1246
  Pz  C    5    0.0086    0.0166   -0.0031   -0.0115    0.0085    0.0044    0.0101   -0.0099
  S   C    6    0.0395    0.0781    0.0710   -0.0699   -0.0328   -0.0134    0.0002   -0.0119
  Px  C    6    0.1099    0.1985    0.1857   -0.1453   -0.0818   -0.0321   -0.0101   -0.0120
  Py  C    6    0.0611    0.1431   -0.1744   -0.1313    0.2489    0.1241    0.2512   -0.2262
  Pz  C    6    0.0041    0.0092   -0.0038   -0.0085    0.0084    0.0043    0.0100   -0.0096
  S   C    7    0.0740    0.0418    0.0640    0.0938    0.0526    0.0687    0.0305    0.0324
  Px  C    7   -0.1102   -0.1818   -0.1587    0.0083   -0.0076   -0.1582    0.1388   -0.1907
  Py  C    7    0.2279    0.0706    0.0906    0.2560    0.1205    0.0739    0.1525   -0.0007
  Pz  C    7    0.0122    0.0109    0.0107    0.0069    0.0036    0.0088   -0.0007    0.0075
  S   C    8    0.0535    0.0588   -0.1012    0.0560   -0.0576   -0.0826   -0.0452   -0.0233
  Px  C    8    0.0733   -0.0310   -0.0334    0.1786   -0.1522   -0.0180   -0.2118    0.0789
  Py  C    8   -0.1362   -0.1765    0.2121   -0.0584    0.0510    0.1570   -0.0112    0.1084
  Pz  C    8   -0.0006   -0.0004    0.0025   -0.0027    0.0020    0.0023    0.0019    0.0002
  S   C    9   -0.0109    0.0403   -0.0410   -0.0067   -0.0010   -0.0285   -0.0077    0.0029
  Px  C    9    0.0994    0.0174   -0.1008    0.2054   -0.2152   -0.0934   -0.2339    0.0586
  Py  C    9    0.0378    0.0485    0.1020    0.1690   -0.0566    0.0358    0.4038    0.1284
  Pz  C    9   -0.0016   -0.0001    0.0072   -0.0002    0.0037    0.0048    0.0220    0.0025
  S   C   10   -0.0095    0.0375    0.0407    0.0138    0.0171    0.0342    0.0138    0.0078
  Px  C   10    0.1690    0.0441   -0.0913    0.2342    0.1289   -0.0179   -0.2249   -0.1444
  Py  C   10    0.1115   -0.0331    0.1064    0.1969    0.1207    0.0709    0.4043    0.0037
  Pz  C   10    0.0027    0.0026    0.0047    0.0099    0.0053    0.0046    0.0081   -0.0024
  S   C   11   -0.0898    0.0165    0.0817   -0.0724   -0.0179    0.0637    0.0443    0.0166
  Px  C   11    0.1048    0.0698   -0.0215    0.2029    0.1008    0.0510   -0.1880   -0.1347
  Py  C   11   -0.2559    0.0927    0.2008   -0.0702    0.0117    0.1853    0.0101   -0.0690
  Pz  C   11    0.0162    0.0006   -0.0103    0.0125    0.0060   -0.0052   -0.0108   -0.0049
  S   H   12   -0.1573    0.0260    0.1074   -0.0779   -0.0281    0.0886    0.0632   -0.0021
  S   C   13   -0.0506    0.0147   -0.0581   -0.0940    0.0365   -0.0471   -0.0418   -0.0051
  Px  C   13   -0.1269    0.1237   -0.1596   -0.0125   -0.0362   -0.1888    0.0913    0.1653
  Py  C   13    0.1360    0.0118    0.0690    0.2436   -0.1162    0.0276    0.1670    0.0707
  Pz  C   13    0.0017    0.0047   -0.0067    0.0047   -0.0042   -0.0076    0.0068    0.0064
  S   H   14    0.1453    0.0890    0.0931    0.1113    0.0626    0.0865    0.0391    0.0587
  S   H   15    0.0636    0.1454   -0.0868   -0.1036    0.0623    0.0303    0.0173   -0.0060
  S   H   16   -0.1188   -0.1887   -0.1203    0.0537    0.1061    0.0735    0.0246    0.0063
  S   H   17   -0.1005   -0.1701    0.1107    0.0441   -0.1200   -0.0788   -0.0309   -0.0022
  S   H   18    0.0619    0.1125    0.1078   -0.0825   -0.0479   -0.0203   -0.0051   -0.0075
  S   H   19    0.0824    0.0703   -0.1005    0.0649   -0.0687   -0.0811   -0.0513   -0.0361
  S   H   20   -0.1029    0.0313   -0.0865   -0.1141    0.0500   -0.0824   -0.0640    0.0145
  S   C   21    0.0929   -0.0674   -0.0560   -0.0436   -0.1033    0.0615    0.0441    0.0303
  Px  C   21   -0.1102    0.0169    0.1536   -0.1429    0.1918   -0.1490    0.0604    0.1987
  Py  C   21    0.3143   -0.2476   -0.0657   -0.2013   -0.1478    0.0771    0.1248    0.1654
  Pz  C   21    0.0047   -0.0057    0.0041   -0.0084    0.0036   -0.0034    0.0043    0.0094
  S   C   22   -0.0749    0.0730   -0.0440    0.0725   -0.0469    0.0146    0.0085   -0.0065
  Px  C   22    0.1802   -0.1749    0.1334   -0.1478    0.1213   -0.0333   -0.0278   -0.0018
  Py  C   22    0.1163   -0.1051   -0.1124   -0.1662   -0.2232    0.0814    0.2205    0.2981
  Pz  C   22    0.0008   -0.0005   -0.0067   -0.0035   -0.0106    0.0052    0.0072    0.0083
  S   C   23   -0.0634    0.0562    0.0384    0.0811    0.0454   -0.0265   -0.0201   -0.0182
  Px  C   23    0.2203   -0.2015    0.0622   -0.2068    0.1550   -0.0298   -0.1546   -0.2001
  Py  C   23    0.0694   -0.0437   -0.1526   -0.0805   -0.2061    0.0749    0.1432    0.1719
  Pz  C   23   -0.0169    0.0152   -0.0024    0.0153   -0.0070   -0.0002    0.0088    0.0123
  S   C   24    0.1079   -0.0874    0.0682   -0.0231    0.1077   -0.0614   -0.0420   -0.0281
  Px  C   24    0.2010   -0.1910    0.0117   -0.2443    0.0550    0.0437   -0.1182   -0.1852
  Py  C   24   -0.2074    0.1418   -0.1485   -0.0740   -0.1922    0.1543    0.0127   -0.0519
  Pz  C   24   -0.0236    0.0182   -0.0142    0.0021   -0.0221    0.0140    0.0074    0.0034
  S   H   25    0.1887   -0.1282   -0.0708   -0.0601   -0.1238    0.0826    0.0439    0.0251
  S   H   26   -0.0999    0.1004   -0.0855    0.0849   -0.0805    0.0264    0.0195    0.0037
  S   H   27   -0.1096    0.0912    0.0493    0.1079    0.0441   -0.0265   -0.0152   -0.0136
  S   H   28    0.1399   -0.1065    0.0679   -0.0217    0.1007   -0.0648   -0.0322   -0.0160
  S   C   29    0.0161   -0.0364    0.0031   -0.0644   -0.0246    0.0134    0.0222    0.0241
  Px  C   29   -0.1828    0.0709    0.2226   -0.0873    0.2912   -0.1911    0.0198    0.1611
  Py  C   29   -0.1316    0.0854    0.1390    0.0297   -0.1215    0.4018   -0.0626   -0.2218
  Pz  C   29   -0.0069    0.0010    0.0073   -0.0045   -0.0078    0.0197   -0.0001   -0.0077
  S   C   30    0.0244   -0.0398    0.0047   -0.0664    0.0348   -0.0135   -0.0211   -0.0179
  Px  C   30   -0.1395    0.1161   -0.2194   -0.1052   -0.0105   -0.2312    0.0462    0.1445
  Py  C   30   -0.0802    0.0293   -0.0903   -0.1225   -0.2728    0.3780   -0.0463   -0.2207
  Pz  C   30   -0.0134    0.0095   -0.0152   -0.0097   -0.0229    0.0221   -0.0015   -0.0123


   Root No.      81        82        83        84

                12 ag     13 au     12 bg     12 bu  

                12.690    12.812    13.280    14.692
  
  S   C    1   -0.0669   -0.0244    0.0091    0.0426
  Px  C    1   -0.1409   -0.2756    0.1844    0.1087
  Py  C    1   -0.0800    0.1108   -0.0920    0.0316
  Pz  C    1   -0.0032    0.0006   -0.0007    0.0018
  S   C    2   -0.0209    0.0095   -0.0112    0.0302
  Px  C    2   -0.1989   -0.2872    0.1818    0.1571
  Py  C    2   -0.1544   -0.1258    0.0553    0.1335
  Pz  C    2   -0.0102   -0.0101    0.0054    0.0085
  S   C    3    0.0141    0.0127    0.0084    0.0239
  Px  C    3   -0.1871   -0.1747    0.2527    0.2290
  Py  C    3   -0.1618   -0.1664    0.0009    0.1226
  Pz  C    3   -0.0068   -0.0074   -0.0018    0.0026
  S   C    4    0.0101    0.0030   -0.0135    0.0288
  Px  C    4   -0.2453    0.1206   -0.1407    0.2106
  Py  C    4   -0.1717    0.0092   -0.2181    0.1506
  Pz  C    4   -0.0074    0.0015   -0.0076    0.0058
  S   C    5   -0.0053   -0.0194    0.0115    0.0265
  Px  C    5   -0.2535    0.1310   -0.1380    0.1784
  Py  C    5   -0.1478    0.1307   -0.1304    0.0627
  Pz  C    5   -0.0114    0.0089   -0.0088    0.0058
  S   C    6   -0.0653   -0.0057   -0.0099    0.0406
  Px  C    6   -0.1196   -0.0254   -0.0063    0.0732
  Py  C    6   -0.1657    0.2355   -0.2055    0.0697
  Pz  C    6   -0.0096    0.0090   -0.0086    0.0046
  S   C    7    0.0609    0.0126   -0.0132    0.0054
  Px  C    7   -0.1433   -0.1669    0.2544    0.2487
  Py  C    7    0.0505   -0.0980    0.1059    0.1450
  Pz  C    7    0.0067    0.0028   -0.0057   -0.0040
  S   C    8    0.0676    0.0214    0.0149    0.0048
  Px  C    8   -0.1274    0.1477   -0.2352    0.2693
  Py  C    8   -0.1863    0.0106   -0.1517    0.1315
  Pz  C    8   -0.0024   -0.0009   -0.0001   -0.0015
  S   C    9    0.0655   -0.0034    0.0007    0.0032
  Px  C    9   -0.0523    0.1525   -0.2263    0.2767
  Py  C    9    0.1057   -0.2489   -0.1333    0.1398
  Pz  C    9    0.0053   -0.0138    0.0019   -0.0027
  S   C   10    0.0608    0.0268    0.0059    0.0063
  Px  C   10    0.0114    0.1562    0.2308    0.2766
  Py  C   10    0.0318   -0.2659    0.1184    0.1400
  Pz  C   10    0.0059   -0.0024    0.0071    0.0084
  S   C   11    0.0590    0.0062   -0.0009   -0.0156
  Px  C   11    0.0888    0.1844    0.2363    0.2778
  Py  C   11    0.1709    0.0786    0.1379    0.1281
  Pz  C   11   -0.0004    0.0061    0.0074    0.0102
  S   H   12    0.0515   -0.0190    0.0055   -0.0093
  S   C   13    0.0536    0.0138    0.0036   -0.0163
  Px  C   13    0.2198   -0.0770   -0.2426    0.2481
  Py  C   13    0.0295   -0.1070   -0.1301    0.1620
  Pz  C   13    0.0107   -0.0065   -0.0117    0.0122
  S   H   14    0.0550   -0.0083   -0.0223   -0.0029
  S   H   15   -0.0777   -0.0232    0.0055    0.0419
  S   H   16   -0.0152    0.0213   -0.0276    0.0156
  S   H   17    0.0067   -0.0267    0.0289    0.0128
  S   H   18   -0.0632   -0.0151   -0.0010    0.0363
  S   H   19    0.0389    0.0362    0.0077    0.0099
  S   H   20    0.0363    0.0351   -0.0062   -0.0068
  S   C   21   -0.0179    0.0224    0.0176   -0.0238
  Px  C   21    0.1758    0.2278    0.1363    0.1643
  Py  C   21    0.0607    0.1822    0.1271    0.0513
  Pz  C   21    0.0060    0.0107    0.0069    0.0054
  S   C   22   -0.0601   -0.0202   -0.0095   -0.0362
  Px  C   22    0.1233    0.0259    0.0086    0.0702
  Py  C   22    0.0378    0.3039    0.2124    0.0662
  Pz  C   22    0.0004    0.0089    0.0067    0.0017
  S   C   23   -0.0626   -0.0130    0.0030   -0.0361
  Px  C   23    0.2310   -0.1971   -0.1773    0.0904
  Py  C   23    0.0014    0.1587    0.1079    0.0257
  Pz  C   23   -0.0148    0.0120    0.0108   -0.0052
  S   C   24   -0.0151   -0.0252   -0.0141   -0.0285
  Px  C   24    0.2831   -0.1823   -0.1731    0.1303
  Py  C   24    0.1787   -0.0425   -0.0537    0.1155
  Pz  C   24    0.0063    0.0035    0.0017    0.0069
  S   H   25   -0.0105    0.0300    0.0283   -0.0116
  S   H   26   -0.0690   -0.0094    0.0001   -0.0359
  S   H   27   -0.0722   -0.0110    0.0044   -0.0363
  S   H   28   -0.0100   -0.0228   -0.0189   -0.0154
  S   C   29    0.0059    0.0015   -0.0136   -0.0283
  Px  C   29    0.1925    0.2152    0.1412    0.2041
  Py  C   29    0.1479    0.0586    0.1837    0.1370
  Pz  C   29    0.0069    0.0029    0.0078    0.0043
  S   C   30    0.0122   -0.0031    0.0086   -0.0262
  Px  C   30    0.2556   -0.0709   -0.2329    0.2164
  Py  C   30    0.2104   -0.0938   -0.0239    0.1108
  Pz  C   30    0.0266   -0.0113   -0.0121    0.0183


              NET ATOMIC CHARGES AND DIPOLE CONTRIBUTIONS

  ATOM NO.   TYPE          CHARGE      No. of ELECS.   s-Pop       p-Pop       
    1          C          -0.028748        4.0287     1.09272     2.93603
    2          C          -0.023561        4.0236     1.08855     2.93501
    3          C           0.016699        3.9833     1.05681     2.92649
    4          C           0.010125        3.9899     1.06901     2.92086
    5          C          -0.033715        4.0337     1.09947     2.93425
    6          C          -0.023881        4.0239     1.10167     2.92221
    7          C          -0.031713        4.0317     1.09613     2.93559
    8          C          -0.027288        4.0273     1.09613     2.93116
    9          C           0.019820        3.9802     1.05500     2.92518
   10          C           0.008334        3.9917     1.06202     2.92965
   11          C          -0.032021        4.0320     1.09462     2.93740
   12          H           0.014379        0.9856     0.98562
   13          C          -0.042048        4.0420     1.10119     2.94086
   14          H           0.027331        0.9727     0.97267
   15          H           0.028380        0.9716     0.97162
   16          H           0.019607        0.9804     0.98039
   17          H           0.022988        0.9770     0.97701
   18          H           0.020710        0.9793     0.97929
   19          H           0.021020        0.9790     0.97898
   20          H           0.015180        0.9848     0.98482
   21          C          -0.025378        4.0254     1.09583     2.92955
   22          C          -0.021234        4.0212     1.08572     2.93551
   23          C          -0.017624        4.0176     1.09489     2.92273
   24          C          -0.018781        4.0188     1.10953     2.90925
   25          H           0.029940        0.9701     0.97006
   26          H           0.017618        0.9824     0.98238
   27          H           0.020328        0.9797     0.97967
   28          H           0.020071        0.9799     0.97993
   29          C           0.003218        3.9968     1.07726     2.91953
   30          C           0.010242        3.9898     1.07442     2.91534
 DIPOLE           X         Y         Z       TOTAL
 POINT-CHG.     0.104    -0.125    -0.010     0.163
 HYBRID         0.045    -0.092    -0.063     0.120
 SUM            0.149    -0.217    -0.073     0.273


          ATOMIC ORBITAL ELECTRON POPULATIONS

     Atom    s        px        py        pz   
    1  C   1.09272   0.97857   0.95384   1.00363
    2  C   1.08855   0.97083   0.96042   1.00376
    3  C   1.05681   0.97453   0.96909   0.98286
    4  C   1.06901   0.96845   0.97280   0.97962
    5  C   1.09947   0.97084   0.95388   1.00953
    6  C   1.10167   0.93551   0.98869   0.99802
    7  C   1.09613   0.96990   0.95584   1.00985
    8  C   1.09613   0.96252   0.95104   1.01761
    9  C   1.05500   0.96898   0.97746   0.97873
   10  C   1.06202   0.97304   0.97317   0.98345
   11  C   1.09462   0.96687   0.95358   1.01695
   12  H   0.98562
   13  C   1.10119   0.95878   0.95809   1.02399
   14  H   0.97267
   15  H   0.97162
   16  H   0.98039
   17  H   0.97701
   18  H   0.97929
   19  H   0.97898
   20  H   0.98482
   21  C   1.09583   0.97848   0.95239   0.99868
   22  C   1.08572   0.94686   0.98766   1.00099
   23  C   1.09489   0.96975   0.95553   0.99745
   24  C   1.10953   0.97008   0.93373   1.00544
   25  H   0.97006
   26  H   0.98238
   27  H   0.97967
   28  H   0.97993
   29  C   1.07726   0.96608   0.97069   0.98276
   30  C   1.07442   0.96853   0.96511   0.98170

 **********************
 *                    *
 * JOB ENDED NORMALLY *
 *                    *
 **********************



 TOTAL JOB TIME:             2.25 SECONDS

 == MOPAC DONE ==


          MOPAC Job: "./tetraceneTraj/tetracene_390.mop" ended normally on Feb 15, 2023, at 11:24.

rm: cannot remove ./tetraceneTraj/tetracene_390.cim: No such file or directory
rm: cannot remove ./tetraceneTraj/tetracene_390.end: No such file or directory
rm: cannot remove ./tetraceneTraj/tetracene_390.log: No such file or directory
rm: cannot remove ./tetraceneTraj/tetracene_390.temp: No such file or directory
rm: cannot remove ./tetraceneTraj/tetracene_390.ple: No such file or directory
rm: cannot remove ./tetraceneTraj/tetracene_390.sts: No such file or directory
