 *******************************************************************************
 ** Site#:    0         For non-commercial use only    Version 20.173L 64BITS **
 *******************************************************************************
 ** Cite this program as: MOPAC2016, Version: 20.173L, James J. P. Stewart,   **
 ** Stewart Computational Chemistry, web-site: HTTP://OpenMOPAC.net.          **
 *******************************************************************************
 **                                                                           **
 **                                MOPAC2016                                  **
 **                                                                           **
 *******************************************************************************

                              INDO CALCULATION RESULTS

 *******************************************************************************
 *  CALCULATION DONE:                                Wed Feb 15 11:41:59 2023  *
 *  INDO       - The INDO Hamiltonian to be used
 *
 *
 *
 *                 CHARGE ON SYSTEM = 0
 *
 *
 *
 *  C.I.=(N,M) - 3 DOUBLY FILLED LEVELS USED IN A C.I. INVOLVING 6 M.O.'S
 *  T=         - A TIME OF 172800.0 SECONDS REQUESTED
 *  DUMP=N     - RESTART FILE WRITTEN EVERY 7200.0 SECONDS REQUESTED
 *  RELSCF     - DEFAULT SCF CRITERION MULTIPLIED BY 0.0000
 *              (DEFAULT SCF CRITERION = 0.00010)
 *  ALLVEC     - PRINT ALL EIGENVECTORS
 **********
 *  WARNING: Specified print options may not behave as expected with INDO
 **********
 *******************************************************************************
INDO C.I.=(6,3) AllVEC CHARGE=0 RELSCF=0.000001


   ATOM   CHEMICAL          X               Y               Z
  NUMBER   SYMBOL      (ANGSTROMS)     (ANGSTROMS)     (ANGSTROMS)
 
     1       C         18.45579874  *  19.55771047  *  22.32494533  *
     2       C         19.84644609  *  19.50396111  *  22.43692015  *
     3       C         20.68024950  *  20.68099889  *  22.46026232  *
     4       C         19.97901624  *  21.97628750  *  22.50186359  *
     5       C         18.46643010  *  22.03039245  *  22.48929544  *
     6       C         17.77076049  *  20.87790178  *  22.32510309  *
     7       C         22.05094732  *  20.64749444  *  22.43026474  *
     8       C         20.72853485  *  23.16819004  *  22.55909717  *
     9       C         22.13085715  *  23.15174215  *  22.58738522  *
    10       C         22.83858061  *  21.85254956  *  22.54684259  *
    11       C         24.25119383  *  21.77978426  *  22.56304975  *
    12       H         24.74684757  *  20.80349639  *  22.58653054  *
    13       C         22.94743640  *  24.34431307  *  22.64689268  *
    14       H         22.62137075  *  19.75310570  *  22.30600833  *
    15       H         17.79808734  *  18.65938445  *  22.33112125  *
    16       H         20.34073660  *  18.58881914  *  22.46375701  *
    17       H         18.02616284  *  23.02182426  *  22.43167879  *
    18       H         16.68472713  *  20.91421120  *  22.23670903  *
    19       H         20.15987040  *  24.12766818  *  22.46954239  *
    20       H         22.55288153  *  25.32828812  *  22.73541964  *
    21       C         26.53018426  *  23.04612147  *  22.58572836  *
    22       C         27.22120821  *  24.24894392  *  22.45287867  *
    23       C         26.52212355  *  25.48592542  *  22.39499905  *
    24       C         25.13741539  *  25.46944408  *  22.46823047  *
    25       H         27.09560119  *  22.11515377  *  22.50475840  *
    26       H         28.29484479  *  24.25395432  *  22.47459841  *
    27       H         27.11623638  *  26.40027698  *  22.27831689  *
    28       H         24.50608976  *  26.37462346  *  22.33441336  *
    29       C         25.06709727  *  22.94113844  *  22.65510972  *
    30       C         24.38046935  *  24.20847566  *  22.64228263  *
 


          CARTESIAN COORDINATES 

    NO.       ATOM           X           Y           Z

     1         C         18.4558     19.5577     22.3249
     2         C         19.8464     19.5040     22.4369
     3         C         20.6802     20.6810     22.4603
     4         C         19.9790     21.9763     22.5019
     5         C         18.4664     22.0304     22.4893
     6         C         17.7708     20.8779     22.3251
     7         C         22.0509     20.6475     22.4303
     8         C         20.7285     23.1682     22.5591
     9         C         22.1309     23.1517     22.5874
    10         C         22.8386     21.8525     22.5468
    11         C         24.2512     21.7798     22.5630
    12         H         24.7468     20.8035     22.5865
    13         C         22.9474     24.3443     22.6469
    14         H         22.6214     19.7531     22.3060
    15         H         17.7981     18.6594     22.3311
    16         H         20.3407     18.5888     22.4638
    17         H         18.0262     23.0218     22.4317
    18         H         16.6847     20.9142     22.2367
    19         H         20.1599     24.1277     22.4695
    20         H         22.5529     25.3283     22.7354
    21         C         26.5302     23.0461     22.5857
    22         C         27.2212     24.2489     22.4529
    23         C         26.5221     25.4859     22.3950
    24         C         25.1374     25.4694     22.4682
    25         H         27.0956     22.1152     22.5048
    26         H         28.2948     24.2540     22.4746
    27         H         27.1162     26.4003     22.2783
    28         H         24.5061     26.3746     22.3344
    29         C         25.0671     22.9411     22.6551
    30         C         24.3805     24.2085     22.6423

           Empirical Formula: C18 H12  =    30 atoms



      MOLECULAR POINT GROUP   :   C1  


      RHF CALCULATION, NO. OF DOUBLY OCCUPIED LEVELS = 42

 WARNING: INDO only performs single-point calculations
  SCF CRITERION =    0.1000E-09

 Summary of symmetry occupancy in each shell:

 SHELL     
    1   42
    v   42
 TOTAL  84




    ROOT NO.    1           2           3           4           5           6

           -44.66432   -42.96184   -40.35665   -37.07143   -35.80830   -34.13287
  
  
  S  C   1   0.11464    -0.18987    -0.27095     0.24617    -0.07310     0.09857
 PX  C   1   0.03385    -0.04926    -0.05075     0.01123    -0.05562     0.08990
 PY  C   1   0.04035    -0.06424    -0.08438     0.06741     0.02528    -0.04909
 PZ  C   1   0.00439    -0.00704    -0.00923     0.00675    -0.00305     0.00474
  
  S  C   2   0.15891    -0.22646    -0.23979     0.10975    -0.20944     0.28389
 PX  C   2   0.00442     0.01440     0.06640    -0.10942    -0.04843     0.04659
 PY  C   2   0.06094    -0.07958    -0.06597     0.00545    -0.01366     0.01065
 PZ  C   2  -0.00113     0.00252     0.00489    -0.00562     0.00179    -0.00269
  
  S  C   3   0.28637    -0.29287    -0.09455    -0.17145    -0.18850     0.20466
 PX  C   3   0.01298     0.04021     0.14014    -0.14177    -0.07208     0.02900
 PY  C   3   0.05586    -0.02754     0.05833    -0.08954     0.11626    -0.13000
 PZ  C   3   0.00082     0.00068     0.00368    -0.00359     0.00490    -0.00495
  
  S  C   4   0.27296    -0.27930    -0.09432    -0.13793     0.20342    -0.17674
 PX  C   4   0.05809    -0.00676     0.12303    -0.16595    -0.02434     0.07179
 PY  C   4  -0.02694     0.05487     0.08294    -0.05068     0.13433    -0.11289
 PZ  C   4  -0.00126     0.00327     0.00604    -0.00501     0.00356    -0.00153
  
  S  C   5   0.14259    -0.20763    -0.23491     0.15414     0.19655    -0.27658
 PX  C   5   0.04400    -0.04787    -0.01321    -0.04922     0.03792    -0.01508
 PY  C   5  -0.03531     0.06305     0.09803    -0.09435     0.02505    -0.00869
 PZ  C   5  -0.00449     0.00775     0.01176    -0.01177    -0.00477     0.00964
  
  S  C   6   0.11439    -0.19071    -0.27687     0.26807     0.07517    -0.14955
 PX  C   6   0.05084    -0.07847    -0.09554     0.06097     0.00834    -0.00959
 PY  C   6   0.00387    -0.00336     0.00314    -0.01286     0.05867    -0.09170
 PZ  C   6   0.00474    -0.00763    -0.01008     0.00782     0.00383    -0.00656
  
  S  C   7   0.25919    -0.15474     0.13353    -0.23551    -0.30984     0.12931
 PX  C   7  -0.03611     0.07447     0.05276     0.07889    -0.01786    -0.09465
 PY  C   7   0.08089    -0.02308     0.08172    -0.06089     0.01867    -0.05765
 PZ  C   7   0.00677    -0.00245     0.00634    -0.00548    -0.00168    -0.00257
  
  S  C   8   0.24341    -0.14228     0.12689    -0.20298     0.34852    -0.15426
 PX  C   8   0.05124     0.01743     0.09411    -0.01546     0.01316     0.07503
 PY  C   8  -0.07541     0.07077    -0.00908     0.09562    -0.00024     0.04380
 PZ  C   8  -0.00390     0.00423     0.00076     0.00478    -0.00410     0.00541
  
  S  C   9   0.32664    -0.01259     0.28422     0.00028     0.24552     0.01958
 PX  C   9   0.02010     0.08882     0.03060     0.18384    -0.08910     0.05744
 PY  C   9  -0.05739     0.05008    -0.04086     0.10077     0.10942     0.06480
 PZ  C   9  -0.00341     0.00358    -0.00162     0.00831     0.00181     0.00331
  
  S  C  10   0.33647    -0.01161     0.29624    -0.00207    -0.20189    -0.06403
 PX  C  10  -0.03126     0.09286    -0.01052     0.19029    -0.08454    -0.06485
 PY  C  10   0.04200     0.04756     0.04034     0.10295     0.13971    -0.00399
 PZ  C  10  -0.00171     0.00418    -0.00062     0.01019     0.00723    -0.00174
  
  S  C  11   0.23478     0.13083     0.16752     0.22229    -0.29350    -0.22356
 PX  C  11  -0.05133     0.02671    -0.08805     0.00080     0.02291    -0.05170
 PY  C  11   0.06661     0.07137     0.02076     0.10459     0.01598    -0.02619
 PZ  C  11   0.00235     0.00303     0.00181     0.00805    -0.00147    -0.00467
  
  S  H  12   0.07229     0.03671     0.05084     0.05771    -0.14804    -0.10872
  
  S  C  13   0.22751     0.13873     0.14753     0.22957     0.27491     0.25293
 PX  C  13   0.02862     0.07324    -0.03297     0.07784    -0.03096     0.07628
 PY  C  13  -0.07664    -0.01686    -0.08414    -0.06109    -0.00320     0.04873
 PZ  C  13  -0.00409    -0.00204    -0.00178    -0.00052    -0.00198    -0.00080
  
  S  H  14   0.08385    -0.04556     0.04476    -0.06570    -0.17097     0.06154
  
  S  H  15   0.02820    -0.04964    -0.07921     0.08584    -0.02842     0.04030
  
  S  H  16   0.05373    -0.07404    -0.07305     0.02446    -0.11416     0.15113
  
  S  H  17   0.04483    -0.06241    -0.06544     0.04026     0.10360    -0.13821
  
  S  H  18   0.02948    -0.05218    -0.08459     0.09756     0.03259    -0.06867
  
  S  H  19   0.07069    -0.04187     0.03087    -0.04864     0.16601    -0.07568
  
  S  H  20   0.07179     0.04760     0.03841     0.06872     0.14448     0.13861
  
  S  C  21   0.14545     0.25011    -0.20576    -0.12037    -0.13087    -0.27120
 PX  C  21  -0.04602    -0.05809     0.00734    -0.05826     0.03120     0.02384
 PY  C  21   0.03603     0.07705    -0.09084    -0.09191     0.02406     0.02013
 PZ  C  21  -0.00326    -0.00654     0.00752     0.00845     0.00151     0.00521
  
  S  C  22   0.11961     0.23887    -0.26231    -0.26284    -0.03711    -0.12964
 PX  C  22  -0.05225    -0.09609     0.08752     0.05595     0.00212     0.00379
 PY  C  22  -0.00267    -0.00044    -0.00968    -0.02645     0.03931     0.08675
 PZ  C  22   0.00307     0.00583    -0.00551    -0.00351    -0.00262    -0.00685
  
  S  C  23   0.11832     0.23537    -0.25648    -0.25144     0.05476     0.09353
 PX  C  23  -0.02902    -0.04883     0.03427    -0.00012    -0.03530    -0.08432
 PY  C  23  -0.04449    -0.08473     0.08383     0.06793     0.01349     0.04266
 PZ  C  23   0.00461     0.00878    -0.00840    -0.00569     0.00065     0.00055
  
  S  C  24   0.15037     0.25339    -0.19868    -0.09463     0.14545     0.28407
 PX  C  24   0.00482     0.03503    -0.07773    -0.11727    -0.03631    -0.06208
 PY  C  24  -0.05861    -0.09009     0.05326    -0.00252    -0.01045    -0.01573
 PZ  C  24   0.00318     0.00430    -0.00069     0.00510     0.00216     0.00303
  
  S  H  25   0.04311     0.07241    -0.05754    -0.03299    -0.06766    -0.13603
  
  S  H  26   0.03198     0.06791    -0.08343    -0.09968    -0.01691    -0.06159
  
  S  H  27   0.03011     0.06375    -0.07789    -0.09149     0.02222     0.03998
  
  S  H  28   0.04742     0.07435    -0.04940    -0.01060     0.08054     0.15288
  
  S  C  29   0.25652     0.29817    -0.04150     0.17847    -0.16651    -0.21409
 PX  C  29  -0.05019     0.00617    -0.12208    -0.15508    -0.00937    -0.06616
 PY  C  29   0.03248     0.07411    -0.07977    -0.04750     0.08916     0.10835
 PZ  C  29  -0.00928    -0.01174     0.00406    -0.00231     0.00669     0.00849
  
  S  C  30   0.26573     0.30975    -0.04506     0.19020     0.12284     0.21768
 PX  C  30  -0.00446     0.06114    -0.13304    -0.12956    -0.07095    -0.08278
 PY  C  30  -0.05043    -0.02319    -0.06165    -0.09272     0.09597     0.15582
 PZ  C  30  -0.00753    -0.01135     0.00746     0.00258    -0.00456    -0.00981




    ROOT NO.    7           8           9          10          11          12

           -31.83333   -31.37832   -28.86999   -28.32587   -27.05974   -26.04298
  
  
  S  C   1   0.05020     0.30644     0.13551     0.31046    -0.04421     0.19199
 PX  C   1   0.12085    -0.01663     0.12632    -0.13081    -0.04679     0.04853
 PY  C   1  -0.07108    -0.00693    -0.08507    -0.02073     0.09870    -0.03985
 PZ  C   1   0.00562     0.00450     0.00855    -0.00247    -0.00160     0.00709
  
  S  C   2   0.25592     0.09814     0.18509    -0.08884    -0.13427    -0.03740
 PX  C   2   0.02181    -0.13818    -0.10667    -0.15615    -0.01122    -0.22095
 PY  C   2   0.00780    -0.07427    -0.04379    -0.09869     0.12828    -0.01022
 PZ  C   2  -0.00195    -0.00854    -0.00562    -0.00823     0.00380    -0.00760
  
  S  C   3   0.13924    -0.18616    -0.08326    -0.14554     0.14985    -0.11273
 PX  C   3  -0.08500    -0.00506    -0.16565     0.12063    -0.05552    -0.12489
 PY  C   3  -0.06370    -0.05398     0.00841     0.10170     0.16436     0.19246
 PZ  C   3  -0.00101    -0.00148     0.00322     0.00251     0.00685     0.00819
  
  S  C   4   0.04773    -0.26053     0.15002    -0.10509     0.05607     0.23288
 PX  C   4   0.08726     0.03797     0.01253     0.17511     0.10693    -0.00719
 PY  C   4  -0.00708     0.01152     0.09339     0.08767    -0.21096     0.00823
 PZ  C   4   0.00328     0.00106     0.00643     0.00506    -0.00398     0.00391
  
  S  C   5  -0.22878    -0.15156    -0.12635    -0.19422    -0.08734    -0.09325
 PX  C   5   0.08638    -0.10542     0.16056    -0.09615    -0.01372     0.21446
 PY  C   5   0.04837    -0.06450     0.07881    -0.03753    -0.12840     0.02803
 PZ  C   5   0.01543    -0.00220     0.01731     0.00031    -0.00238     0.01794
  
  S  C   6  -0.25333     0.15220    -0.24317     0.18645     0.07059    -0.17802
 PX  C   6   0.01083    -0.01874     0.05059    -0.07922     0.02880     0.10094
 PY  C   6  -0.08488    -0.12367    -0.10112    -0.17707    -0.02461    -0.14855
 PZ  C   6  -0.00691    -0.00390    -0.00473    -0.01115     0.00219    -0.00212
  
  S  C   7  -0.18425    -0.06372    -0.25348     0.06294    -0.14438    -0.07785
 PX  C   7  -0.16190     0.09190     0.04965     0.03940    -0.16233     0.16230
 PY  C   7  -0.07433     0.04505     0.01233     0.10905     0.13227     0.15960
 PZ  C   7  -0.00520     0.00259     0.00115     0.00648     0.00999     0.01038
  
  S  C   8   0.15917     0.03845     0.19221     0.14782    -0.21525    -0.06389
 PX  C   8   0.04552     0.18862    -0.07772     0.09130     0.10259    -0.15974
 PY  C   8   0.01906     0.09570    -0.03073    -0.04751    -0.15147    -0.15840
 PZ  C   8   0.00047     0.00713    -0.00491    -0.00155     0.00497    -0.00570
  
  S  C   9   0.11077     0.31525    -0.01358     0.02124     0.09634    -0.16916
 PX  C   9  -0.07003     0.01370    -0.06227    -0.19042     0.12895     0.08056
 PY  C   9   0.10495     0.03144    -0.04588    -0.12080    -0.18524    -0.14688
 PZ  C   9   0.00399     0.00196    -0.00257    -0.01070    -0.00223    -0.00514
  
  S  C  10  -0.27185     0.15600     0.01135     0.02499     0.05342     0.18452
 PX  C  10  -0.04754    -0.02330     0.14524    -0.16065    -0.12051     0.03336
 PY  C  10   0.13189     0.08575     0.07106    -0.07120     0.22933    -0.06820
 PZ  C  10   0.00969     0.00252     0.00964    -0.00948     0.01116    -0.00559
  
  S  C  11  -0.12015    -0.03445     0.25495    -0.08855    -0.17300    -0.00514
 PX  C  11   0.17033    -0.10362     0.02603     0.06365    -0.03000    -0.17877
 PY  C  11   0.09950    -0.03473     0.04365    -0.03396     0.19755    -0.07826
 PZ  C  11   0.00649    -0.00360     0.00842    -0.00412     0.00539    -0.00851
  
  S  H  12  -0.06500    -0.02553     0.10443    -0.01059    -0.20974    -0.01087
  
  S  C  13   0.09399     0.08485    -0.22023    -0.19012    -0.14781     0.01616
 PX  C  13  -0.05951    -0.17368    -0.03886    -0.00017     0.07130     0.20856
 PY  C  13  -0.04165    -0.11185    -0.04942     0.06749    -0.17313     0.09993
 PZ  C  13   0.00133    -0.00181    -0.00328    -0.00299    -0.00394     0.00193
  
  S  H  14  -0.10499    -0.02612    -0.11273    -0.01017    -0.20502    -0.07125
  
  S  H  15   0.01709     0.15697     0.06368     0.20752    -0.05221     0.09907
  
  S  H  16   0.12927     0.04898     0.08461    -0.03953    -0.14700    -0.08182
  
  S  H  17  -0.10590    -0.08313    -0.05589    -0.09424    -0.11926    -0.08779
  
  S  H  18  -0.13133     0.08304    -0.15210     0.13624     0.01856    -0.15467
  
  S  H  19   0.06949     0.00839     0.09631     0.01787    -0.22374    -0.06794
  
  S  H  20   0.03416     0.01861    -0.12630    -0.05889    -0.19750     0.01807
  
  S  C  21   0.29332     0.04401    -0.24211     0.08867    -0.13285     0.05180
 PX  C  21  -0.03640     0.15100    -0.10267    -0.15693    -0.06056     0.19042
 PY  C  21  -0.02834     0.07180    -0.04392    -0.04232     0.07853     0.07907
 PZ  C  21  -0.00277    -0.01233     0.00978     0.00993     0.00522    -0.01331
  
  S  C  22   0.04055     0.30681    -0.13783    -0.26092    -0.00027     0.18017
 PX  C  22  -0.00026     0.03768    -0.02301    -0.10700    -0.03788     0.07880
 PY  C  22  -0.15886     0.03781     0.19217    -0.08924     0.09103    -0.12458
 PZ  C  22   0.01151    -0.00041    -0.01599     0.00706    -0.00351     0.01074
  
  S  C  23  -0.26728     0.17915     0.27413    -0.15104     0.06827    -0.18555
 PX  C  23   0.06427     0.12904    -0.06062    -0.18301     0.03367     0.06103
 PY  C  23  -0.04650    -0.04535     0.08316     0.01240    -0.03911    -0.07822
 PZ  C  23   0.00125    -0.00274    -0.00538     0.00832     0.00195     0.00520
  
  S  C  24  -0.25885    -0.16106     0.13438     0.17139    -0.10827    -0.00741
 PX  C  24  -0.06875     0.11538     0.16721    -0.03847     0.10018    -0.19238
 PY  C  24  -0.04507     0.07043     0.07994    -0.06858    -0.05658    -0.06816
 PZ  C  24   0.00947    -0.01152    -0.01846     0.00838     0.00063     0.01735
  
  S  H  25   0.14532     0.03078    -0.12744     0.01782    -0.13061     0.04571
  
  S  H  26   0.01982     0.17369    -0.08281    -0.19470    -0.02221     0.14096
  
  S  H  27  -0.13306     0.10519     0.15793    -0.12701     0.02625    -0.11432
  
  S  H  28  -0.12306    -0.08066     0.04348     0.06133    -0.12503     0.02960
  
  S  C  29   0.20935    -0.20922     0.08799     0.12769     0.09510    -0.18848
 PX  C  29   0.09736     0.00726    -0.11658     0.14627    -0.11635    -0.04124
 PY  C  29   0.00851    -0.04590    -0.11255     0.07850     0.14071     0.06870
 PZ  C  29  -0.00469     0.00415    -0.00367    -0.00457     0.00194     0.00436
  
  S  C  30   0.01489    -0.25382    -0.10934     0.07473     0.07792     0.14381
 PX  C  30  -0.00815    -0.07546     0.09200     0.19664     0.05686    -0.09631
 PY  C  30  -0.11299    -0.03292    -0.06430     0.06625    -0.19546     0.12627
 PZ  C  30   0.00875     0.00852    -0.00330    -0.01109     0.00428    -0.00409




    ROOT NO.   13          14          15          16          17          18

           -25.23765   -24.02152   -22.80141   -21.55429   -20.62761   -19.46517
  
  
  S  C   1   0.02482     0.13692     0.01230    -0.18064    -0.03417    -0.01723
 PX  C   1   0.05775    -0.23237    -0.00320     0.02881     0.21996     0.17087
 PY  C   1  -0.15145    -0.01805     0.18993     0.11191    -0.12516     0.18980
 PZ  C   1   0.00177    -0.01425     0.00174    -0.00165     0.01702     0.01169
  
  S  C   2   0.15775    -0.16139    -0.11963     0.12051     0.10824     0.02901
 PX  C   2   0.02332     0.03761    -0.06689     0.16620    -0.15031    -0.12706
 PY  C   2  -0.19349    -0.01751     0.21522     0.06230    -0.15090     0.07595
 PZ  C   2  -0.00321    -0.00061    -0.00272     0.01073    -0.00292    -0.01231
  
  S  C   3  -0.15450     0.08799     0.01421     0.08043    -0.07392    -0.13802
 PX  C   3   0.11041     0.17200    -0.13851    -0.12842    -0.00897    -0.01828
 PY  C   3  -0.15080     0.06195     0.01215    -0.10390     0.15023    -0.08655
 PZ  C   3  -0.00533    -0.00236    -0.00490     0.00432     0.01180    -0.01499
  
  S  C   4  -0.06905     0.07977     0.02333    -0.09246    -0.04919    -0.14205
 PX  C   4  -0.09344     0.14998    -0.09668     0.16694     0.09174    -0.07393
 PY  C   4   0.22837     0.10496    -0.13325    -0.00882    -0.08891     0.03062
 PZ  C   4   0.00485     0.00450    -0.00685     0.00183     0.00032    -0.00856
  
  S  C   5   0.15703    -0.16697    -0.10401    -0.11949     0.12536     0.00386
 PX  C   5  -0.03341     0.00131     0.14642    -0.16894    -0.17038    -0.00807
 PY  C   5   0.17096     0.04084    -0.15776    -0.11533    -0.01589    -0.18402
 PZ  C   5  -0.00065     0.00628     0.00526    -0.01323    -0.01224    -0.01011
  
  S  C   6  -0.06864     0.12327    -0.00774     0.16697    -0.05955     0.01977
 PX  C   6  -0.06139    -0.14290     0.17183    -0.11646     0.02831     0.23141
 PY  C   6   0.08295    -0.18491    -0.11683     0.07212     0.23767     0.03948
 PZ  C   6  -0.00115    -0.02091     0.00628    -0.00489     0.02004     0.02248
  
  S  C   7   0.10570     0.11224     0.08589    -0.20977    -0.04808     0.13512
 PX  C   7   0.07431    -0.14434     0.17266    -0.05382     0.04072     0.15889
 PY  C   7  -0.06364    -0.09556    -0.06686    -0.00194     0.21847    -0.03331
 PZ  C   7  -0.00584    -0.00807    -0.01033     0.00763     0.02232    -0.01624
  
  S  C   8   0.08859     0.12040     0.05617     0.19091    -0.08620     0.15048
 PX  C   8  -0.11930    -0.15438     0.05528     0.09530     0.19128     0.09412
 PY  C   8   0.03568    -0.05520     0.17106     0.04157    -0.10668     0.12972
 PZ  C   8  -0.00630    -0.00852     0.00315    -0.00132     0.01041    -0.00619
  
  S  C   9  -0.02045    -0.22143    -0.00080     0.00469     0.00051     0.01586
 PX  C   9   0.04450    -0.05932    -0.09072    -0.20043    -0.15920    -0.16741
 PY  C   9  -0.04838     0.07558     0.23310    -0.07978    -0.07958    -0.07922
 PZ  C   9  -0.00337     0.00276     0.00712    -0.00947    -0.00076    -0.01719
  
  S  C  10   0.07571    -0.23297    -0.04220     0.00601     0.00054    -0.00274
 PX  C  10   0.00042     0.03661     0.09921     0.16250    -0.18779    -0.13020
 PY  C  10  -0.00049    -0.07846    -0.20248     0.05663    -0.10970    -0.06651
 PZ  C  10  -0.00473     0.00016    -0.01248     0.01292    -0.00494    -0.01889
  
  S  C  11  -0.17543     0.08553     0.03123     0.21701     0.04818    -0.14766
 PX  C  11  -0.16499     0.16031    -0.06329    -0.05093     0.18854     0.05344
 PY  C  11   0.06131     0.07182    -0.15431    -0.07342    -0.11589     0.12082
 PZ  C  11  -0.00763     0.01248    -0.01004     0.00292     0.00567    -0.00052
  
  S  H  12  -0.17088     0.04961     0.08954     0.13210     0.15103    -0.13344
  
  S  C  13  -0.12216     0.08904     0.09271    -0.19445     0.08625    -0.17164
 PX  C  13   0.07120     0.14211    -0.18043     0.06434     0.00576     0.14455
 PY  C  13  -0.10765     0.08667     0.02588     0.04574     0.22170    -0.02283
 PZ  C  13  -0.00313     0.01049     0.00620    -0.00993     0.01689    -0.01068
  
  S  H  14   0.11079     0.06370     0.14433    -0.11916    -0.13331     0.14850
  
  S  H  15   0.06609     0.16765    -0.09354    -0.16741    -0.03944    -0.19990
  
  S  H  16   0.20090    -0.06297    -0.20749     0.07576     0.09831    -0.07129
  
  S  H  17   0.19093    -0.06073    -0.18570    -0.08307     0.09873    -0.11110
  
  S  H  18   0.00382     0.15307    -0.12036     0.16990    -0.04858    -0.16340
  
  S  H  19   0.10614     0.07976     0.10237     0.08002    -0.16939     0.11856
  
  S  H  20  -0.15000     0.06191     0.10186    -0.08499     0.18056    -0.14284
  
  S  C  21  -0.13853    -0.19074    -0.09909    -0.13466    -0.10291    -0.02404
 PX  C  21  -0.04260    -0.01235    -0.14434     0.13794    -0.21090    -0.00820
 PY  C  21   0.19599    -0.00838     0.16242     0.15148    -0.02596    -0.16870
 PZ  C  21   0.00344     0.00499     0.00862    -0.01204     0.01890     0.01287
  
  S  C  22   0.06186     0.13882     0.00089     0.16649     0.03485    -0.00262
 PX  C  22  -0.08092     0.13739    -0.16837     0.07220     0.00015     0.27417
 PY  C  22   0.04601     0.18874     0.09628    -0.05432     0.24206     0.03805
 PZ  C  22   0.00548    -0.01535     0.00303     0.00873    -0.01448    -0.00975
  
  S  C  23  -0.06192     0.08844     0.00023    -0.17654     0.04093    -0.01278
 PX  C  23   0.04282     0.24717     0.00853    -0.02349     0.22518     0.16764
 PY  C  23  -0.15924    -0.00874    -0.18346    -0.16193    -0.10808     0.20291
 PZ  C  23   0.01404    -0.01049     0.01835     0.01804     0.00163    -0.02530
  
  S  C  24  -0.15313    -0.18810    -0.13184     0.11478    -0.14205     0.00930
 PX  C  24   0.03209    -0.06505     0.08750    -0.15785    -0.11175    -0.17936
 PY  C  24  -0.19281    -0.02279    -0.18909    -0.10927    -0.14634     0.07934
 PZ  C  24   0.02115     0.00862     0.02208     0.01861     0.03044    -0.00223
  
  S  H  25  -0.19313    -0.09723    -0.19205    -0.10371    -0.11373     0.08547
  
  S  H  26  -0.01752     0.16200    -0.11122     0.13835     0.02001     0.20435
  
  S  H  27  -0.09974     0.12847    -0.09921    -0.19581     0.04544     0.19077
  
  S  H  28  -0.19542    -0.08213    -0.19875     0.05199    -0.10577     0.11535
  
  S  C  29   0.02286     0.11231     0.01047    -0.10543     0.08601     0.13839
 PX  C  29  -0.09289    -0.16888     0.06816    -0.15274     0.12487    -0.06624
 PY  C  29   0.28305    -0.06239     0.14646    -0.01415    -0.06647     0.05396
 PZ  C  29   0.00487     0.00479     0.00164    -0.00363     0.00358     0.00829
  
  S  C  30   0.18336     0.12662     0.01333     0.08732     0.04073     0.15544
 PX  C  30   0.11932    -0.12936     0.14445     0.11122     0.00932     0.00833
 PY  C  30  -0.15055    -0.08382    -0.03349     0.13808     0.11336    -0.07074
 PZ  C  30   0.00268     0.01485     0.00478    -0.02014     0.00904     0.00282




    ROOT NO.   19          20          21          22          23          24

           -18.49579   -17.21173   -16.93927   -16.66061   -16.27260   -15.24554
  
  
  S  C   1  -0.16819     0.00535    -0.05568    -0.08717     0.04810     0.02555
 PX  C   1   0.05596    -0.20164     0.05166    -0.01734     0.18227     0.29136
 PY  C   1   0.12971     0.16204    -0.01389     0.10092     0.17397     0.06157
 PZ  C   1   0.00009    -0.01514     0.00883     0.00398     0.00388    -0.03920
  
  S  C   2   0.14876    -0.00389     0.00417     0.04446     0.00664     0.06382
 PX  C   2   0.11927     0.21243    -0.02940     0.07829    -0.18670    -0.24993
 PY  C   2  -0.04105     0.08183    -0.21638    -0.20287    -0.00556     0.23579
 PZ  C   2   0.01377     0.00992     0.00181     0.01355    -0.03263    -0.08347
  
  S  C   3  -0.05331    -0.04416    -0.15761    -0.15604    -0.03894    -0.00602
 PX  C   3  -0.17598     0.01687     0.00629     0.02872     0.24816    -0.16606
 PY  C   3  -0.04307    -0.25500     0.12529     0.00968    -0.05258    -0.00378
 PZ  C   3   0.01349    -0.00366    -0.00028     0.00962    -0.03484    -0.09499
  
  S  C   4   0.07977    -0.02231     0.17023     0.13752    -0.14314     0.01620
 PX  C   4   0.12183    -0.21208     0.03331    -0.08082     0.06375     0.17327
 PY  C   4   0.10092     0.15869     0.06738     0.12883     0.16740     0.04437
 PZ  C   4   0.01040     0.00962     0.01308     0.01747    -0.02407    -0.06808
  
  S  C   5  -0.17884     0.02196    -0.01893    -0.04753    -0.00684    -0.09706
 PX  C   5  -0.00842     0.20543     0.05220     0.16804    -0.11641    -0.11797
 PY  C   5  -0.10595     0.06315    -0.20531    -0.17712    -0.12711     0.26380
 PZ  C   5  -0.00359     0.01689     0.00012     0.00843    -0.02435    -0.04408
  
  S  C   6   0.16533     0.01314     0.06186     0.09978     0.04763    -0.01819
 PX  C   6  -0.18466     0.07031     0.02272     0.00599     0.22449    -0.25065
 PY  C   6  -0.00673    -0.22744     0.10340    -0.02237     0.03650    -0.06416
 PZ  C   6  -0.01955    -0.01083     0.01494     0.00239     0.01746    -0.07873
  
  S  C   7  -0.09889    -0.04089     0.05768     0.04789     0.07772     0.04314
 PX  C   7   0.16280    -0.03711     0.11622     0.08051    -0.19788     0.17523
 PY  C   7   0.08687    -0.09556    -0.23816    -0.05162     0.05406    -0.12897
 PZ  C   7   0.01412    -0.00510    -0.03706    -0.00506    -0.00851    -0.10390
  
  S  C   8   0.08563    -0.03803    -0.01638    -0.05241     0.09382    -0.01571
 PX  C   8  -0.18109    -0.02049     0.10140    -0.05943    -0.17093    -0.08922
 PY  C   8  -0.07391    -0.04211    -0.26784    -0.16043     0.02998    -0.11636
 PZ  C   8  -0.00680     0.00214     0.01673     0.01247    -0.03190    -0.06411
  
  S  C   9  -0.13984     0.16125     0.12057    -0.01660    -0.12031     0.03810
 PX  C   9   0.05065     0.10893    -0.02025     0.06600     0.06007     0.11940
 PY  C   9  -0.06510    -0.20909     0.10314    -0.05246    -0.14299     0.02718
 PZ  C   9   0.00179    -0.01152     0.01039     0.01221    -0.02062    -0.07247
  
  S  C  10   0.14785     0.07311    -0.22735     0.03834    -0.00775    -0.05205
 PX  C  10   0.06369    -0.12857    -0.04938    -0.05722    -0.07885    -0.06143
 PY  C  10  -0.07567     0.24477     0.03760     0.03233     0.07860     0.04630
 PZ  C  10  -0.00294     0.00919    -0.00293     0.00183    -0.00813    -0.08752
  
  S  C  11  -0.09569    -0.01054     0.03021    -0.04289     0.05998    -0.05020
 PX  C  11  -0.20718     0.10673     0.17662     0.03296     0.12631     0.07904
 PY  C  11  -0.05544    -0.08856    -0.17071     0.22537     0.14610     0.01742
 PZ  C  11  -0.01143    -0.00492    -0.00166     0.00946     0.00139    -0.05851
  
  S  H  12  -0.08137     0.09984     0.22516    -0.18204    -0.03141    -0.00046
  
  S  C  13   0.09662    -0.06256     0.02221     0.05398     0.06623     0.03140
 PX  C  13   0.12309     0.09716     0.11990    -0.19075     0.16727     0.03439
 PY  C  13   0.10102    -0.04303    -0.24955     0.17691     0.09800    -0.12466
 PZ  C  13   0.01896    -0.02281    -0.01228     0.01886     0.00256    -0.06635
  
  S  H  14  -0.04262     0.02846     0.26951     0.09377    -0.08646     0.20340
  
  S  H  15  -0.19392    -0.00795    -0.04534    -0.10642    -0.18940    -0.17884
  
  S  H  16   0.14778     0.02425     0.15803     0.20838    -0.06722    -0.25072
  
  S  H  17  -0.16334    -0.01047    -0.19540    -0.22365    -0.04787     0.20553
  
  S  H  18   0.23071    -0.05520     0.01270     0.04450    -0.16715     0.21796
  
  S  H  19   0.05874    -0.04471    -0.26151    -0.12243     0.15058    -0.04760
  
  S  H  20   0.08276    -0.09978    -0.22915     0.23695     0.05954    -0.09225
  
  S  C  21   0.15588     0.01037    -0.00833    -0.06984     0.01646    -0.00705
 PX  C  21  -0.06085    -0.17126     0.14196    -0.14759     0.14989    -0.12441
 PY  C  21  -0.12154    -0.13584    -0.02007     0.17323     0.07091     0.05071
 PZ  C  21   0.00845     0.00620    -0.01790     0.01389    -0.04182    -0.02227
  
  S  C  22  -0.14866    -0.00010    -0.01838     0.11694     0.01920     0.05761
 PX  C  22  -0.13289    -0.04672    -0.03304     0.04525    -0.24755    -0.03133
 PY  C  22   0.04231     0.24803    -0.05320    -0.00805    -0.02254     0.06271
 PZ  C  22  -0.00629    -0.02343    -0.00075     0.01055    -0.01109    -0.02512
  
  S  C  23   0.15000     0.00928     0.03490    -0.10112     0.07345    -0.03684
 PX  C  23   0.11351     0.17849    -0.10767    -0.04733    -0.13174     0.01566
 PY  C  23   0.13467    -0.16991    -0.00003    -0.10788    -0.16373    -0.11876
 PZ  C  23  -0.01828     0.00261     0.00467     0.01079     0.00881    -0.02006
  
  S  C  24  -0.16692     0.00829     0.00639     0.06586    -0.03469     0.03442
 PX  C  24   0.06219    -0.17608     0.12585    -0.04296     0.17941    -0.05155
 PY  C  24  -0.03470    -0.17045    -0.07233     0.21774    -0.02508     0.12275
 PZ  C  24   0.00888     0.02475     0.00310    -0.03130    -0.01296    -0.05579
  
  S  H  25   0.13211     0.03181     0.07864    -0.23019     0.02550    -0.09878
  
  S  H  26  -0.18151    -0.03720    -0.03630     0.09731    -0.20125     0.00061
  
  S  H  27   0.21525    -0.03320    -0.03136    -0.15034    -0.14153    -0.09992
  
  S  H  28  -0.13021    -0.03477    -0.11941     0.22418    -0.11079     0.13656
  
  S  C  29  -0.03943    -0.06457    -0.11101     0.17806    -0.06820     0.03484
 PX  C  29   0.15741     0.21909    -0.08356     0.01392    -0.11927     0.09517
 PY  C  29   0.11501    -0.14667     0.00771    -0.10709    -0.21615    -0.07514
 PZ  C  29   0.01010    -0.01751    -0.00217    -0.00176    -0.02816    -0.05892
  
  S  C  30   0.04599     0.00199     0.10657    -0.21968    -0.05769    -0.07912
 PX  C  30  -0.12801    -0.03013    -0.10405     0.07160    -0.21091    -0.09684
 PY  C  30  -0.03410     0.28884     0.00648    -0.08448     0.04656     0.00168
 PZ  C  30   0.02476    -0.03303    -0.00260     0.00410    -0.00908    -0.06278




    ROOT NO.   25          26          27          28          29          30

           -14.97548   -14.81869   -14.65636   -14.40331   -13.84065   -13.43551
  
  
  S  C   1  -0.04983    -0.03164     0.01245     0.00992    -0.06299    -0.01919
 PX  C   1   0.04970     0.07403    -0.04545     0.07383    -0.13067    -0.04045
 PY  C   1  -0.16660     0.17996    -0.03179    -0.15728    -0.07939    -0.15915
 PZ  C   1  -0.02144     0.02933    -0.00364     0.12638     0.06493    -0.18244
  
  S  C   2  -0.03055     0.07240    -0.03082    -0.03272     0.03360    -0.01584
 PX  C   2  -0.05347    -0.03535     0.02541    -0.11146     0.15138     0.07486
 PY  C   2  -0.17296    -0.04225    -0.04755     0.05347     0.03473     0.05252
 PZ  C   2  -0.04179     0.04893    -0.00785     0.14672     0.10853    -0.20334
  
  S  C   3   0.03575    -0.01604     0.03148     0.03284    -0.02102     0.00483
 PX  C   3   0.06076     0.07955     0.08894    -0.02136    -0.23544    -0.11888
 PY  C   3   0.19349    -0.02409     0.00854     0.04484    -0.00452    -0.00863
 PZ  C   3  -0.08545     0.09881    -0.02312     0.24710     0.12350    -0.26428
  
  S  C   4   0.05938    -0.02360    -0.03290     0.00911    -0.00926     0.00136
 PX  C   4  -0.03812    -0.08010     0.01735     0.07719    -0.16016    -0.06373
 PY  C   4  -0.15377     0.04157     0.00855    -0.04797    -0.20202    -0.07731
 PZ  C   4  -0.10958     0.07701    -0.03074     0.23731     0.08816    -0.25582
  
  S  C   5  -0.05000    -0.04231     0.01767    -0.01268     0.02310    -0.00989
 PX  C   5   0.05284     0.09961    -0.04413    -0.09674     0.13804     0.05531
 PY  C   5  -0.20764     0.09355    -0.10727    -0.11428     0.06150    -0.07080
 PZ  C   5  -0.05656     0.04498    -0.01882     0.13342     0.08121    -0.19954
  
  S  C   6   0.03112     0.04613     0.00784    -0.01687    -0.03819    -0.02004
 PX  C   6  -0.06527    -0.08039     0.11489    -0.03879    -0.13599    -0.03509
 PY  C   6   0.19043    -0.15791     0.07068     0.16813    -0.04748     0.12503
 PZ  C   6  -0.02479     0.00110     0.01391     0.13067     0.04705    -0.17812
  
  S  C   7   0.03647     0.02959    -0.03061     0.02024     0.02846    -0.01627
 PX  C   7  -0.05149    -0.03527    -0.11463     0.01659     0.26393     0.08978
 PY  C   7   0.11162     0.28738     0.02138    -0.15713     0.15365    -0.02514
 PZ  C   7  -0.08053     0.13630    -0.01311     0.20946     0.07274    -0.15845
  
  S  C   8  -0.01538    -0.05507     0.03378     0.05381     0.00681     0.00854
 PX  C   8  -0.18389    -0.17681    -0.04277    -0.07918     0.15434     0.01495
 PY  C   8   0.25443     0.08883     0.04356     0.04636     0.19841     0.11542
 PZ  C   8  -0.12341     0.06832    -0.03795     0.21843     0.04785    -0.14282
  
  S  C   9  -0.02533    -0.00210     0.01254    -0.00427    -0.01029     0.00436
 PX  C   9   0.20991     0.19302     0.04456     0.05640    -0.15682    -0.01014
 PY  C   9   0.15631     0.08522     0.01651     0.00983    -0.05369    -0.15052
 PZ  C   9  -0.13761     0.11497    -0.04241     0.26875    -0.00781    -0.02606
  
  S  C  10   0.03151     0.01000    -0.03225     0.00277     0.00740     0.02992
 PX  C  10   0.00734    -0.26558     0.01869     0.09354    -0.25041    -0.10172
 PY  C  10  -0.04976    -0.13794     0.03496     0.04808    -0.17063     0.07652
 PZ  C  10  -0.13363     0.11391    -0.02290     0.27833    -0.01643    -0.01501
  
  S  C  11  -0.02912    -0.03849     0.03156    -0.02502    -0.04285    -0.02577
 PX  C  11  -0.01645     0.21207    -0.01052    -0.09258     0.23244     0.08073
 PY  C  11   0.04537    -0.22617    -0.22721     0.07047     0.14529     0.00220
 PZ  C  11  -0.10527     0.10902    -0.02478     0.20357    -0.02933     0.12930
  
  S  H  12  -0.05918     0.23849     0.18757    -0.09717    -0.04753     0.02155
  
  S  C  13  -0.00969     0.06039    -0.01091    -0.02507    -0.01516    -0.01195
 PX  C  13  -0.04917    -0.03280     0.13688     0.05776     0.22423     0.12035
 PY  C  13  -0.22131    -0.18002    -0.13543    -0.10123     0.01174     0.06749
 PZ  C  13  -0.13730     0.08376    -0.05038     0.17475    -0.03837     0.13138
  
  S  H  14  -0.08309    -0.22265    -0.07370     0.10766     0.01115     0.07138
  
  S  H  15   0.07007    -0.18928     0.05246     0.08497     0.10494     0.14073
  
  S  H  16   0.09235     0.05023     0.02981    -0.10003     0.06032    -0.02093
  
  S  H  17  -0.20447     0.02285    -0.05875    -0.06922     0.01129    -0.07608
  
  S  H  18   0.08250     0.09215    -0.09995     0.02169     0.10655     0.04357
  
  S  H  19   0.26542     0.11927     0.06673     0.07575     0.08954     0.10050
  
  S  H  20  -0.16872    -0.10037    -0.15055    -0.09268    -0.07938     0.01969
  
  S  C  21  -0.01584    -0.06647     0.08367     0.04102    -0.01615     0.00925
 PX  C  21  -0.10120    -0.05430    -0.13903    -0.07386     0.12273    -0.00111
 PY  C  21  -0.18409     0.03048     0.35031    -0.05648     0.09267     0.06752
 PZ  C  21  -0.05547     0.08806    -0.00502     0.12138    -0.10559     0.23750
  
  S  C  22   0.01170     0.02170     0.04525     0.01806     0.05219     0.00637
 PX  C  22   0.06690     0.19709    -0.21515    -0.07550    -0.18841     0.00831
 PY  C  22   0.20513    -0.06202    -0.17171     0.15417    -0.03601    -0.03195
 PZ  C  22  -0.06817     0.07083     0.00528     0.07700    -0.08030     0.23377
  
  S  C  23  -0.02636    -0.04072    -0.03966    -0.00629     0.03663     0.01496
 PX  C  23   0.02641    -0.16203     0.23135     0.08512    -0.02347    -0.06484
 PY  C  23  -0.17274     0.06455     0.12615    -0.15007    -0.10360     0.03085
 PZ  C  23  -0.03754     0.06681    -0.05757     0.09202    -0.07416     0.23192
  
  S  C  24   0.08200     0.04092    -0.07066     0.03588    -0.03807    -0.00983
 PX  C  24  -0.07482     0.13436    -0.22721    -0.08971     0.04688     0.09469
 PY  C  24  -0.06146     0.04500     0.26850     0.06855     0.10496     0.04461
 PZ  C  24  -0.06249     0.06002    -0.06637     0.10131    -0.09770     0.23239
  
  S  H  25   0.08969    -0.08173    -0.29371     0.01898    -0.02192    -0.06770
  
  S  H  26   0.06557     0.19052    -0.17410    -0.06055    -0.15383     0.01317
  
  S  H  27  -0.12823    -0.05632     0.19185    -0.08892    -0.07174    -0.02529
  
  S  H  28   0.03198    -0.03026     0.28273     0.10117     0.04448    -0.04691
  
  S  C  29  -0.01749     0.02703    -0.01624    -0.00082     0.03488     0.02548
 PX  C  29   0.09542     0.03852     0.17064     0.09534    -0.15289     0.02093
 PY  C  29  -0.07683     0.08340     0.11472    -0.09155    -0.16171    -0.07065
 PZ  C  29  -0.11915     0.12744    -0.01693     0.19526    -0.09347     0.27444
  
  S  C  30  -0.02894     0.03782    -0.01621    -0.04408     0.01659     0.00749
 PX  C  30   0.01183    -0.00280    -0.15078    -0.07129    -0.22651    -0.09702
 PY  C  30   0.11423    -0.07701    -0.08850     0.08792    -0.05309     0.02709
 PZ  C  30  -0.14201     0.11742    -0.02756     0.18073    -0.07475     0.28188




    ROOT NO.   31          32          33          34          35          36

           -13.02718   -12.97120   -12.10181   -11.74870   -11.69427   -11.41695
  
  
  S  C   1   0.00221     0.01821    -0.00037     0.00636    -0.01038     0.00303
 PX  C   1   0.02343    -0.22972    -0.07387    -0.09199    -0.04202     0.10255
 PY  C   1   0.23846     0.07508     0.16096     0.09639     0.02892     0.06201
 PZ  C   1  -0.11398    -0.01316     0.13226    -0.15023     0.25094     0.06125
  
  S  C   2   0.00137     0.00170    -0.02501    -0.03972     0.00495    -0.04643
 PX  C   2  -0.02869     0.22155     0.02040     0.07435     0.00976    -0.14254
 PY  C   2  -0.21738     0.01141    -0.17892    -0.14602    -0.01272    -0.15662
 PZ  C   2  -0.10494     0.00969     0.13045    -0.09180     0.19371     0.02749
  
  S  C   3  -0.02307     0.01663    -0.00307    -0.00091    -0.00345     0.01584
 PX  C   3   0.11077    -0.13197    -0.06635    -0.14746    -0.05877     0.15121
 PY  C   3   0.16469    -0.04102     0.22713     0.22943     0.04379     0.17395
 PZ  C   3  -0.09210    -0.02066     0.07667    -0.01378     0.04608     0.00241
  
  S  C   4   0.02818    -0.04887     0.01008     0.00538    -0.00145    -0.00548
 PX  C   4  -0.04516     0.23296     0.14249     0.19241     0.08012    -0.16974
 PY  C   4  -0.09365     0.05300    -0.18700    -0.20313    -0.03210    -0.20418
 PZ  C   4  -0.09551    -0.03624     0.04429    -0.04882     0.02938     0.03397
  
  S  C   5   0.00253     0.02112    -0.01356    -0.04729    -0.00566     0.02624
 PX  C   5   0.08426    -0.24943    -0.12536    -0.16877    -0.07925     0.16446
 PY  C   5   0.18643     0.00694     0.11270     0.06344     0.00611     0.08206
 PZ  C   5  -0.09187    -0.03106     0.10516    -0.14298     0.18711     0.08730
  
  S  C   6   0.02495     0.00657     0.01433     0.02213     0.00151    -0.01305
 PX  C   6   0.00552     0.26422     0.07827     0.13841     0.01035    -0.11833
 PY  C   6  -0.23461    -0.03208    -0.15319    -0.05595    -0.03569    -0.10665
 PZ  C   6  -0.13571     0.02329     0.12893    -0.15386     0.25729     0.05081
  
  S  C   7   0.03714    -0.05854    -0.00510    -0.04263    -0.01742    -0.02791
 PX  C   7  -0.06732     0.10792     0.06469     0.12094     0.04806    -0.17500
 PY  C   7   0.08578     0.08718    -0.08512    -0.15613    -0.03079    -0.18426
 PZ  C   7  -0.01045    -0.01843    -0.03549     0.05626    -0.11471    -0.05563
  
  S  C   8  -0.03717     0.07087    -0.01544    -0.03421    -0.03564    -0.00192
 PX  C   8   0.15921     0.00544    -0.01833    -0.15696    -0.10467     0.18797
 PY  C   8   0.01296    -0.13091     0.09173     0.14152     0.02865     0.18608
 PZ  C   8  -0.01018    -0.04166    -0.04375     0.06005    -0.13428     0.01838
  
  S  C   9   0.01345    -0.07199    -0.00435     0.00039     0.00822     0.00127
 PX  C   9  -0.13151    -0.06484     0.03690     0.18073     0.13472    -0.18047
 PY  C   9   0.21041     0.09809     0.02832    -0.17341    -0.08910    -0.22283
 PZ  C   9   0.05712    -0.04199    -0.11141     0.18887    -0.23882    -0.02975
  
  S  C  10  -0.05070     0.01066    -0.00456     0.00838    -0.01619    -0.00936
 PX  C  10   0.12822     0.06674     0.05778    -0.13093    -0.12290     0.15844
 PY  C  10  -0.17222    -0.15931     0.03331     0.18508     0.12362     0.21721
 PZ  C  10   0.05570    -0.05088    -0.10260     0.20581    -0.23170    -0.03255
  
  S  C  11   0.03660    -0.05346     0.03237    -0.04480    -0.02571     0.00559
 PX  C  11  -0.09250    -0.10843    -0.01723     0.10198     0.10912    -0.16004
 PY  C  11   0.10538    -0.05534     0.16317    -0.08062    -0.10946    -0.15385
 PZ  C  11   0.10132    -0.02655    -0.05832     0.11467    -0.10297    -0.05655
  
  S  H  12  -0.11131    -0.02525    -0.14340     0.11433     0.14854     0.07849
  
  S  C  13  -0.04231     0.08286     0.01503    -0.03506    -0.03552    -0.02870
 PX  C  13  -0.03570     0.15003     0.05324    -0.09001    -0.14163     0.22536
 PY  C  13  -0.12978    -0.08489    -0.06043     0.07755     0.07938     0.17602
 PZ  C  13   0.06502    -0.01529    -0.07653     0.11058    -0.08421     0.01634
  
  S  H  14  -0.08031    -0.03951     0.10876     0.18447     0.06714     0.06915
  
  S  H  15  -0.20640     0.07746    -0.09246    -0.02416    -0.00378    -0.11439
  
  S  H  16   0.16595     0.08887     0.16159     0.15060     0.02610     0.05473
  
  S  H  17   0.13247     0.11836     0.15003     0.12465     0.03312     0.01905
  
  S  H  18   0.01060    -0.25953    -0.08759    -0.11912    -0.03265     0.11175
  
  S  H  19  -0.08203    -0.07146     0.09159     0.20168     0.08151     0.07435
  
  S  H  20  -0.11158    -0.08623    -0.08020     0.10801     0.11815     0.06793
  
  S  C  21   0.03418    -0.00628     0.03669    -0.03119    -0.02290     0.01754
 PX  C  21   0.13535    -0.15795    -0.11234     0.05503     0.18535    -0.14200
 PY  C  21  -0.06588    -0.14725     0.17159    -0.02670    -0.09358    -0.07610
 PZ  C  21   0.08317     0.03883     0.10389    -0.14879     0.14102    -0.00408
  
  S  C  22   0.00610     0.02591    -0.01193     0.00310    -0.00688    -0.00263
 PX  C  22  -0.20361     0.11032     0.07637    -0.01979    -0.10765     0.09430
 PY  C  22   0.13541     0.18889    -0.17606    -0.00810     0.12324     0.08159
 PZ  C  22   0.07044     0.00415     0.16016    -0.20794     0.20064    -0.03340
  
  S  C  23   0.00984     0.00126    -0.00897    -0.00682     0.00894     0.02024
 PX  C  23   0.20055    -0.15717    -0.04984     0.02336     0.12348    -0.13590
 PY  C  23  -0.14094    -0.19629     0.20191    -0.01915    -0.09481    -0.07165
 PZ  C  23   0.08065     0.03348     0.13413    -0.20542     0.21844    -0.02184
  
  S  C  24   0.01442     0.01120     0.02754    -0.00493    -0.01282    -0.05079
 PX  C  24  -0.18228     0.16708     0.02671    -0.03966    -0.08185     0.16344
 PY  C  24   0.07993     0.20135    -0.18967    -0.02184     0.11990     0.14573
 PZ  C  24   0.08676    -0.03562     0.13177    -0.13645     0.15051    -0.05684
  
  S  H  25   0.13022     0.03433    -0.20134     0.05324     0.16728     0.00173
  
  S  H  26  -0.19601     0.11911     0.07324    -0.02010    -0.11066     0.09643
  
  S  H  27  -0.01867    -0.25016     0.12967     0.01685    -0.03534    -0.12800
  
  S  H  28   0.15461     0.07667    -0.18255     0.02529     0.13562     0.01806
  
  S  C  29  -0.01907     0.03197     0.01379    -0.00693    -0.01875    -0.02436
 PX  C  29  -0.11425     0.13934     0.13572    -0.07555    -0.18577     0.14933
 PY  C  29  -0.03018     0.06648    -0.24612     0.07972     0.17137     0.16375
 PZ  C  29   0.13891     0.01654    -0.00832    -0.00926     0.06172    -0.01877
  
  S  C  30   0.01434    -0.02569    -0.02783     0.00082     0.01276     0.01872
 PX  C  30   0.02946    -0.21946    -0.06244     0.11733     0.16365    -0.19015
 PY  C  30   0.00965    -0.14633     0.27095    -0.05881    -0.17515    -0.15512
 PZ  C  30   0.12073     0.02289    -0.01555    -0.01247     0.06689     0.01781




    ROOT NO.   37          38          39          40          41          42

           -10.58728    -9.97319    -9.52145    -8.31442    -8.11354    -6.75910
  
  
  S  C   1  -0.00184    -0.01590     0.00778    -0.00788    -0.01880     0.01155
 PX  C   1  -0.01391    -0.01824     0.00565    -0.01108    -0.02210     0.01509
 PY  C   1   0.00360     0.00648     0.00140    -0.00331     0.00225     0.00157
 PZ  C   1  -0.09828     0.26652    -0.25801     0.18311     0.33002    -0.18754
  
  S  C   2  -0.00081     0.01256    -0.00854     0.00790     0.00979    -0.00691
 PX  C   2   0.03727     0.00494     0.03471    -0.02472    -0.00541     0.01273
 PY  C   2  -0.00737     0.00935    -0.00928     0.00480     0.00418    -0.00121
 PZ  C   2  -0.22791     0.02353    -0.34360     0.32852     0.12307    -0.20874
  
  S  C   3   0.00679    -0.00363     0.00036     0.00379    -0.00419    -0.00259
 PX  C   3  -0.01661    -0.00639    -0.01744     0.01134    -0.00848    -0.00229
 PY  C   3   0.00933    -0.00829     0.01366    -0.00792     0.00492    -0.00192
 PZ  C   3  -0.26100    -0.30155    -0.13684     0.08069    -0.31001     0.14603
  
  S  C   4  -0.00974     0.00411    -0.00455    -0.00726     0.00124     0.00936
 PX  C   4   0.01507     0.00236     0.00883    -0.00906    -0.00479     0.00785
 PY  C   4  -0.01530     0.02616    -0.02518     0.00274     0.01259     0.00775
 PZ  C   4   0.22779    -0.19113     0.25852     0.06215    -0.35670    -0.17699
  
  S  C   5   0.01658     0.01701     0.02338    -0.02722    -0.01025     0.01794
 PX  C   5  -0.03086    -0.00693    -0.02505     0.01986     0.01384    -0.01265
 PY  C   5  -0.01482    -0.00321    -0.01498     0.01301     0.01037    -0.00960
 PZ  C   5   0.23512     0.23556     0.28030    -0.32278    -0.09945     0.20374
  
  S  C   6  -0.00061    -0.01004    -0.00386     0.01116    -0.00322    -0.00942
 PX  C   6  -0.00111    -0.04654    -0.00663     0.03155    -0.02030    -0.02287
 PY  C   6  -0.00973    -0.03977    -0.00709     0.02380    -0.01939    -0.01480
 PZ  C   6   0.13750     0.37837     0.10407    -0.26549     0.16337     0.18495
  
  S  C   7  -0.00394     0.00258    -0.00525     0.00519     0.00128     0.00004
 PX  C   7   0.00358    -0.00038     0.01079    -0.01282     0.00362     0.01277
 PY  C   7   0.07183     0.04530     0.01285     0.03185     0.01308    -0.04122
 PZ  C   7  -0.35214    -0.22803    -0.08468    -0.23270    -0.06370     0.36181
  
  S  C   8   0.01611    -0.00846     0.00906     0.01016     0.00275    -0.01917
 PX  C   8  -0.04249     0.00993    -0.01600    -0.01531     0.00772     0.01610
 PY  C   8   0.01636    -0.01793     0.01438     0.00199     0.00201    -0.00438
 PZ  C   8   0.37120    -0.17308     0.21014     0.22199     0.02371    -0.35161
  
  S  C   9  -0.00449     0.00448    -0.01321     0.00101    -0.00499     0.01326
 PX  C   9   0.02236    -0.00286     0.00639     0.00445    -0.01774    -0.00064
 PY  C   9   0.00906     0.03695    -0.01538    -0.00215    -0.01827     0.00238
 PZ  C   9   0.30307    -0.02735    -0.02889     0.12385     0.39499     0.04486
  
  S  C  10   0.00334     0.00716     0.00746    -0.00943     0.00654    -0.01113
 PX  C  10  -0.01335     0.01043    -0.01926     0.00521    -0.01516    -0.00617
 PY  C  10  -0.00818    -0.03394    -0.00011     0.01887    -0.02582    -0.00048
 PZ  C  10  -0.24559     0.03266     0.06130    -0.30699     0.31692    -0.01406
  
  S  C  11   0.01184    -0.00496    -0.01129     0.01612    -0.00337     0.02309
 PX  C  11   0.02587    -0.01667     0.00678     0.00953     0.00814     0.02041
 PY  C  11   0.01303     0.01506    -0.00963     0.01099    -0.00178     0.02311
 PZ  C  11  -0.30073     0.28582     0.18205    -0.17595    -0.00393    -0.38085
  
  S  H  12  -0.00318    -0.02586     0.01362    -0.00404     0.00731    -0.01157
  
  S  C  13  -0.00771     0.00175     0.00931    -0.00612     0.00309    -0.01223
 PX  C  13  -0.00999    -0.01045    -0.00096    -0.00681     0.01207    -0.00409
 PY  C  13  -0.04759    -0.03205     0.03669    -0.01302     0.00354    -0.02854
 PZ  C  13   0.31052     0.11055    -0.30884     0.16746     0.05398     0.39750
  
  S  H  14  -0.02137    -0.01615     0.00346    -0.00707    -0.00271     0.00394
  
  S  H  15   0.00462    -0.00026    -0.00163     0.00720     0.00713    -0.00854
  
  S  H  16   0.01661    -0.00122     0.01317    -0.00587     0.00089     0.00003
  
  S  H  17  -0.00429    -0.00382    -0.00805     0.01100     0.00718    -0.01006
  
  S  H  18  -0.01270     0.01152    -0.00597    -0.00435     0.00908     0.00390
  
  S  H  19   0.01512    -0.01592     0.01179    -0.00254    -0.00216     0.00700
  
  S  H  20  -0.01709    -0.02213     0.01380    -0.00082     0.00433     0.00030
  
  S  C  21  -0.00839    -0.00395     0.01709     0.01765     0.00935     0.01563
 PX  C  21  -0.01518    -0.00612     0.04939     0.04100     0.00210     0.02231
 PY  C  21   0.00451     0.01403     0.00135     0.00834    -0.00341     0.00488
 PZ  C  21  -0.15601    -0.02392     0.36097     0.36058     0.06205     0.24388
  
  S  C  22   0.00706     0.01210    -0.01714    -0.00955    -0.01569    -0.01067
 PX  C  22  -0.00661     0.00148     0.00063    -0.00019     0.00598     0.00219
 PY  C  22  -0.01025    -0.04054     0.02822     0.01400     0.02797     0.01966
 PZ  C  22  -0.06431    -0.28702     0.27655     0.14267     0.28607     0.18968
  
  S  C  23  -0.00875    -0.00704     0.01175     0.00203     0.00462    -0.00142
 PX  C  23   0.02079    -0.02521    -0.00905    -0.01342     0.01267    -0.00372
 PY  C  23   0.00995    -0.01354    -0.01098    -0.02525     0.01312    -0.01789
 PZ  C  23   0.07742    -0.36835    -0.07061    -0.29504     0.18752    -0.19136
  
  S  C  24   0.01193     0.01000    -0.01369    -0.00149    -0.00741     0.00017
 PX  C  24  -0.01415    -0.01097    -0.00344    -0.01771    -0.00338    -0.01526
 PY  C  24   0.02385    -0.05763    -0.05078    -0.06237    -0.00764    -0.03587
 PZ  C  24   0.16013    -0.17982    -0.30700    -0.34509    -0.09354    -0.23580
  
  S  H  25  -0.00531    -0.01908     0.00941    -0.00332     0.00576    -0.00352
  
  S  H  26  -0.00462     0.00239    -0.00281    -0.00228     0.00599     0.00211
  
  S  H  27   0.00772     0.01246    -0.00144     0.00438     0.00048     0.00377
  
  S  H  28   0.01213    -0.02325    -0.00742    -0.00497     0.00761     0.00505
  
  S  C  29  -0.01194     0.02182     0.00631    -0.00352    -0.01783    -0.02094
 PX  C  29   0.00153     0.01342    -0.02182    -0.00808    -0.00690    -0.00630
 PY  C  29  -0.00548    -0.05132     0.00410    -0.01692     0.02154    -0.00688
 PZ  C  29  -0.18666     0.32942     0.14925     0.16825    -0.31050    -0.13519
  
  S  C  30   0.00913     0.00468    -0.01304     0.00443    -0.00894     0.01185
 PX  C  30   0.01231     0.01072    -0.00679     0.00881    -0.01789     0.00942
 PY  C  30   0.02119     0.06244    -0.03008     0.02152    -0.03772     0.01858
 PZ  C  30   0.16696     0.18871    -0.33241     0.03185    -0.34163     0.12224




    ROOT NO.   43          44          45          46          47          48

            -0.98996     0.25271     0.34190     1.20259     1.44601     1.81119
  
  
  S  C   1   0.00908     0.02527    -0.00158    -0.01320     0.02824     0.00526
 PX  C   1   0.00805     0.01830    -0.00049    -0.00799     0.01479     0.00204
 PY  C   1  -0.00260    -0.00045    -0.00221     0.00020     0.00052     0.00212
 PZ  C   1  -0.20663    -0.36518    -0.10480     0.21842    -0.28816    -0.07122
  
  S  C   2   0.00751    -0.00005     0.01274    -0.00070    -0.00642    -0.00588
 PX  C   2  -0.01042    -0.00924    -0.01450     0.01767     0.00284    -0.01380
 PY  C   2   0.00544     0.00218     0.00619    -0.00032     0.00019    -0.00312
 PZ  C   2   0.22373     0.22164     0.29308    -0.32746     0.05710     0.21000
  
  S  C   3  -0.00165     0.00524    -0.00588    -0.00643     0.00144     0.01002
 PX  C   3   0.00529     0.00634    -0.00290     0.00306     0.00431    -0.01299
 PY  C   3  -0.00963    -0.00789     0.00474    -0.01122    -0.01171     0.02005
 PZ  C   3   0.15040     0.26695    -0.16647     0.17017     0.28525    -0.25970
  
  S  C   4  -0.00989    -0.00876    -0.01374     0.01700     0.00949    -0.03241
 PX  C   4   0.00419     0.00591     0.01273    -0.01500    -0.01206     0.01168
 PY  C   4   0.00358     0.01688     0.00121    -0.00777     0.00788    -0.00512
 PZ  C   4   0.17544    -0.35018     0.13173     0.25272    -0.21051    -0.24100
  
  S  C   5   0.02576     0.02853     0.03408    -0.03782    -0.02061     0.04075
 PX  C   5  -0.01025    -0.00818    -0.01634     0.01775     0.01185    -0.01194
 PY  C   5  -0.00996    -0.00992    -0.01018     0.00973     0.00223    -0.00594
 PZ  C   5   0.20766     0.17109     0.29064    -0.27280    -0.22844     0.24088
  
  S  C   6  -0.00264    -0.01881    -0.00196     0.01560    -0.01364    -0.01670
 PX  C   6   0.01400    -0.01672     0.02372    -0.00444    -0.03678     0.00835
 PY  C   6   0.01249    -0.00514     0.01462    -0.00428    -0.01211     0.00171
 PZ  C   6  -0.19060     0.09620    -0.30063     0.12131     0.39165    -0.15345
  
  S  C   7   0.00298     0.00007     0.00086     0.00613     0.00116     0.00822
 PX  C   7  -0.00923    -0.00160    -0.00478    -0.00087    -0.00363     0.01296
 PY  C   7   0.04262     0.01493     0.02161     0.01902     0.02326    -0.03831
 PZ  C   7  -0.36494    -0.11399    -0.19733    -0.11335    -0.21210     0.35916
  
  S  C   8  -0.01070     0.00005    -0.00635    -0.01633     0.00664     0.05469
 PX  C   8   0.01727     0.00589     0.00509     0.01893    -0.00619    -0.01962
 PY  C   8  -0.00979    -0.00148    -0.00910    -0.00101     0.00740     0.00541
 PZ  C   8  -0.34379    -0.06400    -0.19184    -0.20870     0.18866     0.35768
  
  S  C   9  -0.00118    -0.00295    -0.00397     0.00265    -0.00289    -0.01971
 PX  C   9  -0.00677    -0.01122    -0.00125    -0.00932     0.00303     0.02128
 PY  C   9   0.01067    -0.02347     0.00302     0.00021     0.00431     0.00768
 PZ  C   9  -0.04089     0.42531     0.02307    -0.00630    -0.03760    -0.28800
  
  S  C  10  -0.00265    -0.01041     0.00161    -0.01096     0.00215     0.00130
 PX  C  10   0.01218     0.00879    -0.01686     0.00314     0.00068     0.00724
 PY  C  10  -0.00553     0.01607    -0.02489    -0.00084     0.00238     0.02428
 PZ  C  10  -0.01378    -0.21824     0.39071    -0.06083    -0.02684    -0.27027
  
  S  C  11  -0.01064    -0.00542     0.01936    -0.00425     0.00382    -0.02233
 PX  C  11  -0.01802    -0.00983     0.01534    -0.00811     0.00066    -0.00623
 PY  C  11  -0.00867    -0.00959     0.01310    -0.00143     0.00574    -0.00078
 PZ  C  11   0.37705    -0.06580    -0.17603     0.18333     0.26244     0.29869
  
  S  H  12   0.00577     0.00687    -0.00839     0.01314     0.00117     0.02406
  
  S  C  13  -0.00236     0.01000     0.00433    -0.00461    -0.00666    -0.00565
 PX  C  13   0.00347     0.00945    -0.00748     0.01153    -0.00895     0.00477
 PY  C  13  -0.02867     0.00995     0.00703    -0.01745     0.00612    -0.02375
 PZ  C  13   0.39252    -0.11204    -0.16587     0.28330    -0.12166     0.30435
  
  S  H  14   0.00105     0.00201     0.00411    -0.00296     0.00216    -0.00732
  
  S  H  15  -0.00472    -0.01743     0.00307     0.00745    -0.02144    -0.00080
  
  S  H  16  -0.00566    -0.00431    -0.00476     0.00047    -0.00024     0.00601
  
  S  H  17  -0.01498    -0.01971    -0.02008     0.02526     0.01115    -0.02467
  
  S  H  18  -0.00212     0.00762    -0.00128    -0.00725     0.00642     0.01080
  
  S  H  19   0.00783     0.00361     0.00785     0.01157    -0.00946    -0.03699
  
  S  H  20   0.00187    -0.00043    -0.00270     0.01175     0.00149     0.01461
  
  S  C  21  -0.00420    -0.00356     0.02916     0.03713     0.02219     0.02669
 PX  C  21  -0.02593     0.01778     0.02012     0.02176    -0.01437     0.00480
 PY  C  21  -0.00274     0.00021     0.00195     0.00015     0.00120    -0.00016
 PZ  C  21  -0.22708     0.12709     0.32678     0.36927    -0.02486     0.15731
  
  S  C  22  -0.01155     0.01665    -0.00174     0.00524    -0.02376    -0.00340
 PX  C  22   0.00367    -0.00385     0.00196     0.00162     0.00500     0.00182
 PY  C  22   0.01286    -0.02355     0.00615    -0.00561     0.03011     0.00676
 PZ  C  22   0.20526    -0.29627    -0.09044    -0.28487     0.28252    -0.07043
  
  S  C  23  -0.00260    -0.00100    -0.00112    -0.01031     0.00338    -0.01211
 PX  C  23   0.01389     0.00617    -0.01598     0.00476    -0.01889     0.00565
 PY  C  23   0.01601     0.01300    -0.03121    -0.00881    -0.03761    -0.00962
 PZ  C  23   0.17235     0.12588    -0.31801    -0.07747    -0.36758    -0.07900
  
  S  C  24  -0.00104     0.01474     0.00436     0.03068    -0.01112     0.02638
 PX  C  24  -0.01334     0.00132     0.01495     0.00605     0.01184     0.00123
 PY  C  24  -0.03652     0.01043     0.05218     0.03849     0.03697     0.01748
 PZ  C  24  -0.23442     0.14157     0.31962     0.31773     0.18534     0.16316
  
  S  H  25   0.00773    -0.00470    -0.01622    -0.02451    -0.00411    -0.01515
  
  S  H  26   0.01054    -0.01472    -0.00168    -0.00953     0.01902    -0.00019
  
  S  H  27   0.00723    -0.00294    -0.00544    -0.00103    -0.00145     0.00441
  
  S  H  28   0.00839    -0.01371    -0.00517    -0.01844     0.00683    -0.01317
  
  S  C  29  -0.00941     0.02995    -0.02823    -0.01401    -0.04120    -0.01354
 PX  C  29   0.00518    -0.00101    -0.01091    -0.01475    -0.00511    -0.01303
 PY  C  29   0.00068     0.00447     0.01081     0.01526     0.00232     0.00550
 PZ  C  29  -0.14587     0.27486    -0.22944    -0.14908    -0.33191    -0.17779
  
  S  C  30  -0.00341    -0.02931     0.01167    -0.02093     0.02906    -0.01445
 PX  C  30  -0.00424    -0.01648     0.00812    -0.01801     0.01236    -0.00887
 PY  C  30  -0.00319    -0.01954    -0.00684    -0.03649     0.00133    -0.02210
 PZ  C  30  -0.12465    -0.31098     0.10755    -0.35726     0.20441    -0.18976




    ROOT NO.   49          50          51          52          53          54

             2.40648     2.49989     2.86757     3.17112     3.35993     3.36663
  
  
  S  C   1   0.00073    -0.12862    -0.17683    -0.21898    -0.04855     0.24447
 PX  C   1   0.00605    -0.02346    -0.00427    -0.00695     0.05100     0.01799
 PY  C   1  -0.00491    -0.01620    -0.03089    -0.01809    -0.05138    -0.01004
 PZ  C   1  -0.31252     0.07379    -0.13069     0.16154    -0.04669     0.08796
  
  S  C   2   0.03463     0.15454     0.19316     0.17322    -0.02601    -0.21359
 PX  C   2  -0.00072     0.01565    -0.01183    -0.02841    -0.04123     0.04878
 PY  C   2   0.01772     0.05529     0.05585     0.02447    -0.01656    -0.02538
 PZ  C   2   0.25006    -0.05895     0.12002    -0.21311     0.06277    -0.06126
  
  S  C   3  -0.06610    -0.23221    -0.25376    -0.13168     0.04353     0.12044
 PX  C   3  -0.00037    -0.00268     0.05907     0.04765     0.10641     0.00836
 PY  C   3  -0.01165    -0.03587    -0.03573     0.01696    -0.06393    -0.11116
 PZ  C   3  -0.10489     0.00644    -0.12843     0.28806    -0.09077     0.08734
  
  S  C   4   0.07454     0.23008     0.27870     0.06910     0.17533     0.13277
 PX  C   4  -0.00974     0.02694    -0.02996    -0.01850    -0.08072     0.02162
 PY  C   4  -0.00611    -0.00464    -0.04875    -0.05077     0.02371     0.11967
 PZ  C   4   0.06329    -0.02982     0.09466    -0.26919     0.07111    -0.09313
  
  S  C   5  -0.07118    -0.15119    -0.24562    -0.08880    -0.22525    -0.03355
 PX  C   5  -0.00924    -0.07212    -0.06155    -0.00533    -0.03559    -0.08228
 PY  C   5   0.00216     0.00628     0.01815     0.02644     0.01532    -0.03311
 PZ  C   5  -0.23026     0.11103    -0.05676     0.21351    -0.00337     0.07924
  
  S  C   6   0.01642     0.11744     0.18559     0.16053     0.17534    -0.08938
 PX  C   6  -0.01962     0.04003     0.03171     0.03989     0.01376    -0.01006
 PY  C   6   0.00194     0.00920     0.00273    -0.04015     0.03630     0.09306
 PZ  C   6   0.31305    -0.10389     0.10361    -0.17640     0.03462    -0.07819
  
  S  C   7   0.06015     0.23024     0.12586     0.02083    -0.23228    -0.08309
 PX  C   7  -0.00576    -0.00371    -0.08042    -0.06775    -0.07735     0.03652
 PY  C   7   0.02203     0.05214    -0.02482    -0.01870    -0.10238     0.02280
 PZ  C   7  -0.08662     0.06698     0.05757    -0.15779     0.06403    -0.05373
  
  S  C   8  -0.05233    -0.24058    -0.14053     0.06598    -0.03681    -0.28814
 PX  C   8  -0.01441    -0.03480     0.06354     0.05782     0.07763    -0.07268
 PY  C   8   0.01568     0.02740     0.05956     0.03475     0.04712    -0.00507
 PZ  C   8   0.15186    -0.02667    -0.01843     0.14127    -0.06223     0.07459
  
  S  C   9   0.06931     0.28629     0.01984    -0.16509    -0.12957     0.33259
 PX  C   9   0.01578     0.01509    -0.07134    -0.02657    -0.06870    -0.03853
 PY  C   9   0.01254    -0.03362    -0.02729    -0.00226     0.15222     0.05810
 PZ  C   9  -0.32403     0.12687    -0.03178    -0.03160     0.07066    -0.01635
  
  S  C  10  -0.06563    -0.28625     0.00526     0.10566     0.38579    -0.03050
 PX  C  10  -0.01542     0.01347     0.07699    -0.00026     0.02431     0.09298
 PY  C  10  -0.02413    -0.02208     0.02955     0.06162    -0.01565    -0.13555
 PZ  C  10   0.29552    -0.13817     0.02209     0.02701    -0.08332    -0.00161
  
  S  C  11   0.08491     0.24182    -0.13703    -0.06037    -0.27677    -0.14819
 PX  C  11   0.01125    -0.03670    -0.06418     0.02407     0.10583    -0.07330
 PY  C  11   0.02349     0.03927    -0.06318     0.00346     0.01805    -0.05545
 PZ  C  11  -0.13895     0.10346    -0.07717     0.10768     0.02124     0.05336
  
  S  H  12  -0.04708    -0.12907     0.08118     0.04704     0.14543     0.05269
  
  S  C  13  -0.07498    -0.22665     0.09351     0.13268    -0.07830    -0.23441
 PX  C  13  -0.01242    -0.00315     0.08915    -0.02248    -0.09779     0.07314
 PY  C  13   0.00336     0.06275     0.01112    -0.02324    -0.03545     0.07241
 PZ  C  13   0.15293    -0.07904     0.07214    -0.10152    -0.01374    -0.03919
  
  S  H  14  -0.03075    -0.12185    -0.08205    -0.00016     0.10611     0.01324
  
  S  H  15  -0.00225     0.08592     0.11512     0.14669     0.02223    -0.17220
  
  S  H  16  -0.01675    -0.07499    -0.10292    -0.09314    -0.00661     0.09824
  
  S  H  17   0.04238     0.08192     0.15054     0.06096     0.13422    -0.00952
  
  S  H  18  -0.01177    -0.07163    -0.11141    -0.09167    -0.11364     0.03920
  
  S  H  19   0.02227     0.13887     0.08135    -0.04160    -0.01629     0.15682
  
  S  H  20   0.04081     0.12373    -0.05305    -0.08144     0.01330     0.11846
  
  S  C  21   0.07406     0.16206    -0.21601    -0.00371     0.00355    -0.26819
 PX  C  21  -0.00991    -0.06772     0.05020     0.01462     0.04736     0.05577
 PY  C  21  -0.00067     0.00467    -0.01439    -0.00637     0.03472    -0.02151
 PZ  C  21   0.21265    -0.04054    -0.08952     0.22061    -0.00089     0.12662
  
  S  C  22  -0.02430    -0.11154     0.15947     0.03690    -0.10984     0.21739
 PX  C  22   0.01256     0.03174    -0.03852    -0.00547     0.02407    -0.02171
 PY  C  22  -0.01481     0.02115    -0.00671    -0.00130    -0.08188    -0.06591
 PZ  C  22  -0.32557     0.04001     0.12698    -0.21578     0.00374    -0.07445
  
  S  C  23   0.03747     0.11088    -0.16158    -0.05720     0.27575    -0.05497
 PX  C  23   0.00532    -0.03130     0.02051     0.02112    -0.05710    -0.04922
 PY  C  23   0.02752    -0.01879     0.01048     0.02069     0.01028     0.06232
 PZ  C  23   0.33193    -0.04717    -0.11952     0.21720    -0.01739     0.07874
  
  S  C  24  -0.05927    -0.15590     0.20533     0.05738    -0.31332    -0.02365
 PX  C  24   0.00153     0.02366    -0.00737    -0.00628    -0.01529     0.03189
 PY  C  24  -0.01534     0.04979    -0.02725    -0.03894     0.02908     0.00592
 PZ  C  24  -0.23163     0.03091     0.10632    -0.21905     0.02992    -0.08546
  
  S  H  25  -0.04685    -0.08253     0.12226     0.00021    -0.02970     0.13339
  
  S  H  26   0.00910     0.06994    -0.09536    -0.02515     0.05743    -0.14382
  
  S  H  27  -0.02634    -0.07000     0.10079     0.03700    -0.18094     0.02372
  
  S  H  28   0.03654     0.08492    -0.12994    -0.02444     0.18698    -0.01261
  
  S  C  29  -0.09937    -0.24003     0.26578     0.01340     0.04330     0.23778
 PX  C  29   0.00393     0.02583     0.01575    -0.02272    -0.00739     0.08025
 PY  C  29  -0.00709    -0.00708     0.04765     0.01336    -0.15814    -0.05594
 PZ  C  29  -0.03059    -0.00728     0.09723    -0.26504    -0.01154    -0.15650
  
  S  C  30   0.08793     0.22043    -0.23872    -0.06245     0.22274     0.04006
 PX  C  30   0.00360    -0.01103    -0.06008     0.03889     0.02926    -0.10998
 PY  C  30  -0.00286    -0.02013     0.00228     0.00340     0.10976     0.07929
 PZ  C  30   0.03524     0.00732    -0.10636     0.26415    -0.03253     0.10219




    ROOT NO.   55          56          57          58          59          60

             3.59187     3.69604     3.87754     3.93990     4.28136     4.34277
  
  
  S  C   1  -0.18262     0.33907    -0.08134    -0.00973     0.07253     0.09321
 PX  C   1   0.02923    -0.07602    -0.08229    -0.08165     0.05443     0.09969
 PY  C   1  -0.02353     0.04550     0.07727     0.06987    -0.05575    -0.06223
 PZ  C   1   0.07815     0.09753    -0.02007    -0.00586     0.01057     0.01786
  
  S  C   2   0.05087    -0.06296     0.19552     0.16670    -0.14334    -0.25849
 PX  C   2  -0.07524     0.17546     0.01808     0.05156     0.00478     0.00621
 PY  C   2  -0.03819     0.08469     0.02363     0.04526     0.00703     0.02904
 PZ  C   2  -0.13581    -0.07757     0.00151    -0.00338     0.00406    -0.00364
  
  S  C   3   0.11668    -0.28547    -0.15308    -0.22161     0.07192     0.00823
 PX  C   3   0.01320     0.00617    -0.04533    -0.00164    -0.01609    -0.17519
 PY  C   3   0.04993    -0.13451     0.11346     0.05945    -0.06777    -0.05084
 PZ  C   3   0.24916     0.13183    -0.01341    -0.00134    -0.00267     0.01409
  
  S  C   4  -0.11892     0.30979    -0.12973    -0.00381     0.04206    -0.05507
 PX  C   4  -0.01160     0.04373     0.11461     0.06849    -0.08157    -0.16362
 PY  C   4   0.04178    -0.07427    -0.06860    -0.12014     0.02527    -0.11040
 PZ  C   4  -0.23333    -0.12991     0.03016     0.01681    -0.01361    -0.00718
  
  S  C   5   0.00701    -0.02280     0.24698     0.14280    -0.15579    -0.25839
 PX  C   5   0.06475    -0.18214     0.01621    -0.04035     0.02034     0.04517
 PY  C   5   0.03754    -0.07714     0.00187    -0.01462    -0.01039    -0.02617
 PZ  C   5   0.12299     0.07457    -0.06156    -0.03761     0.03429     0.04883
  
  S  C   6   0.15225    -0.28705    -0.16072    -0.17174     0.09502     0.11470
 PX  C   6   0.01056     0.00644     0.00008     0.01014    -0.00520     0.01744
 PY  C   6  -0.05998     0.12627    -0.09138    -0.04043     0.06930     0.10970
 PZ  C   6  -0.08395    -0.08327     0.01750     0.00502    -0.00530    -0.00244
  
  S  C   7  -0.06921     0.12718     0.19512     0.11118    -0.02043     0.33144
 PX  C   7   0.02966    -0.10118    -0.02187    -0.09347     0.05155     0.08039
 PY  C   7   0.04285    -0.03522     0.00581    -0.06412     0.03139    -0.01488
 PZ  C   7  -0.22737    -0.11991     0.01861    -0.00098     0.00564    -0.02128
  
  S  C   8   0.02224    -0.06748     0.04281     0.16105     0.00418     0.37157
 PX  C   8  -0.07620     0.11463    -0.06503     0.02437     0.05319    -0.05649
 PY  C   8  -0.02667     0.08926    -0.03496     0.02997     0.01589     0.08904
 PZ  C   8   0.22284     0.12440    -0.02401    -0.02488     0.01515    -0.04796
  
  S  C   9   0.10808    -0.15860     0.06857    -0.15420    -0.12145    -0.02544
 PX  C   9   0.04696    -0.06565     0.04013     0.06790    -0.03367     0.19017
 PY  C   9   0.04254     0.00344    -0.05593     0.08480    -0.15808    -0.01499
 PZ  C   9  -0.30010    -0.14001     0.02096     0.01186    -0.02205     0.02272
  
  S  C  10  -0.03413     0.10831    -0.13259     0.11793    -0.12444    -0.13182
 PX  C  10   0.00468    -0.00390     0.10353     0.00441    -0.15200     0.08358
 PY  C  10  -0.06924     0.07457     0.03959     0.08767     0.05092     0.10527
 PZ  C  10   0.30336     0.14161    -0.01931     0.00154    -0.00201     0.01947
  
  S  C  11  -0.00600    -0.03797    -0.11624    -0.01400     0.34587    -0.09439
 PX  C  11  -0.01880     0.05145    -0.13616     0.05466    -0.00044    -0.06781
 PY  C  11  -0.01329     0.01544    -0.08045     0.03294    -0.07769    -0.00235
 PZ  C  11  -0.23455    -0.10859     0.02399    -0.00815     0.02731    -0.01094
  
  S  H  12  -0.01349     0.04108     0.06918     0.00343    -0.29906     0.10770
  
  S  C  13  -0.13524     0.13184     0.05039    -0.16036     0.32233    -0.14655
 PX  C  13   0.00831    -0.01746     0.05160    -0.15840    -0.04369     0.01057
 PY  C  13  -0.00437    -0.03406     0.00869    -0.06291     0.01750    -0.02717
 PZ  C  13   0.22160     0.09912    -0.01499     0.00532     0.03485    -0.02477
  
  S  H  14   0.05079    -0.09078    -0.11074    -0.06703     0.02953    -0.28872
  
  S  H  15   0.11827    -0.22216     0.06819     0.02039    -0.05573    -0.04004
  
  S  H  16  -0.03372     0.03829    -0.09781    -0.08436     0.09018     0.20663
  
  S  H  17  -0.00803     0.00836    -0.15570    -0.08276     0.11481     0.22879
  
  S  H  18  -0.09411     0.17754     0.10911     0.11933    -0.06200    -0.04252
  
  S  H  19  -0.02970     0.04420    -0.00229    -0.11516     0.01795    -0.35132
  
  S  H  20   0.08664    -0.08496    -0.04610     0.10923    -0.26793     0.14692
  
  S  C  21  -0.06267     0.11915    -0.18605    -0.20759    -0.27751    -0.01742
 PX  C  21   0.00816     0.01243     0.12735    -0.12393    -0.06397     0.02349
 PY  C  21   0.00881     0.02663     0.07656    -0.07588     0.01886     0.00713
 PZ  C  21  -0.14613    -0.07719     0.05125     0.01068     0.03522     0.00467
  
  S  C  22  -0.00112    -0.15181    -0.13216     0.36979     0.13876    -0.01281
 PX  C  22   0.00209     0.00884     0.00240    -0.00199    -0.01582     0.00506
 PY  C  22  -0.03382     0.00931    -0.16555    -0.00035    -0.10422    -0.02183
 PZ  C  22   0.12572     0.04068    -0.02943     0.03660     0.00966    -0.00314
  
  S  C  23   0.08021     0.09004     0.35305    -0.19588     0.06444     0.04685
 PX  C  23  -0.02895     0.03456    -0.02296    -0.13566    -0.11855     0.01331
 PY  C  23   0.00315    -0.03554     0.02550     0.08171     0.05486     0.00955
 PZ  C  23  -0.12446    -0.04576     0.01690    -0.02155    -0.01187     0.00479
  
  S  C  24  -0.09175    -0.00403    -0.24062    -0.14486    -0.25854     0.00770
 PX  C  24  -0.00002    -0.04110    -0.11206     0.14977     0.02096    -0.02392
 PY  C  24   0.02384    -0.01196    -0.09335     0.09292    -0.04917    -0.01766
 PZ  C  24   0.15153     0.06168     0.00246     0.01368     0.03703    -0.00933
  
  S  H  25   0.03217    -0.06831     0.11230     0.12420     0.24040    -0.00269
  
  S  H  26  -0.00043     0.09670     0.08145    -0.23404    -0.05733    -0.00074
  
  S  H  27  -0.05523    -0.05447    -0.22837     0.12359    -0.01137    -0.04260
  
  S  H  28   0.04777     0.01190     0.16778     0.08993     0.23707    -0.01799
  
  S  C  29   0.05187    -0.03366     0.31427    -0.13039    -0.02593     0.07769
 PX  C  29   0.03939    -0.05972     0.02725     0.15657     0.15332    -0.00022
 PY  C  29  -0.03519     0.01272     0.00735    -0.13575     0.10621    -0.03026
 PZ  C  29   0.25436     0.12017    -0.08703     0.03304    -0.00003    -0.01645
  
  S  C  30   0.06807    -0.05490    -0.12618     0.35210    -0.01559    -0.00153
 PX  C  30  -0.04213     0.04326     0.02721    -0.00818     0.17152    -0.06164
 PY  C  30   0.03126    -0.01468     0.17619     0.01308     0.07024     0.02925
 PZ  C  30  -0.26176    -0.10144     0.04090    -0.05854    -0.03668     0.02269




    ROOT NO.   61          62          63          64          65          66

             5.34330     5.51386     5.54325     5.83525     6.22749     6.50050
  
  
  S  C   1  -0.02324    -0.20765     0.13607    -0.10329     0.07921     0.03235
 PX  C   1   0.11381     0.08311    -0.09080     0.17379    -0.14907    -0.05146
 PY  C   1  -0.07086     0.26587    -0.14417     0.03606    -0.03907    -0.02597
 PZ  C   1   0.00303    -0.01678     0.00946    -0.00228     0.00036     0.00015
  
  S  C   2  -0.16650    -0.09875     0.11578    -0.20917     0.16356     0.05923
 PX  C   2  -0.04076    -0.15517     0.10938    -0.09656     0.07797     0.03824
 PY  C   2   0.02286     0.03161    -0.03466     0.10273    -0.14267    -0.06663
 PZ  C   2   0.00243    -0.00495     0.00143     0.00483    -0.00546    -0.00190
  
  S  C   3   0.04354     0.06719    -0.04945    -0.03089     0.10666     0.05191
 PX  C   3  -0.18945     0.01109     0.03955    -0.09089    -0.07134    -0.09989
 PY  C   3  -0.02198    -0.04464     0.04621    -0.11456     0.19654     0.13914
 PZ  C   3   0.00580     0.00532    -0.00295    -0.00066     0.00790     0.00786
  
  S  C   4  -0.07581     0.01112    -0.00015     0.05784    -0.19838    -0.15333
 PX  C   4   0.10732    -0.05616     0.00024     0.11257    -0.08937    -0.02532
 PY  C   4   0.09349     0.05581    -0.06244     0.02078     0.11652     0.08983
 PZ  C   4  -0.00136    -0.00183     0.00092     0.00435    -0.00726    -0.00539
  
  S  C   5   0.13787    -0.11524     0.02579     0.15186    -0.15791    -0.06533
 PX  C   5   0.06102    -0.04478     0.01672    -0.05436     0.17923     0.13870
 PY  C   5   0.10918    -0.19447     0.08272     0.10938    -0.17586    -0.10284
 PZ  C   5  -0.01522     0.01070    -0.00090    -0.02633     0.03428     0.01811
  
  S  C   6   0.15494    -0.27281     0.12137     0.05549    -0.04158    -0.00548
 PX  C   6  -0.11000     0.26002    -0.12387    -0.05442     0.07228     0.02631
 PY  C   6  -0.07254    -0.03035     0.04469    -0.12303     0.12365     0.05331
 PZ  C   6  -0.00141     0.01252    -0.00690    -0.00076     0.00395     0.00208
  
  S  C   7   0.26056    -0.02461    -0.04251     0.10285     0.08599     0.11261
 PX  C   7   0.07821     0.00420    -0.02220    -0.01234     0.08383     0.04495
 PY  C   7  -0.07537     0.01185     0.01243    -0.12439    -0.04271    -0.22039
 PZ  C   7  -0.01757    -0.00361     0.00447    -0.01408    -0.00530    -0.02224
  
  S  C   8  -0.18965    -0.03086     0.07392    -0.08824    -0.07260    -0.08892
 PX  C   8   0.04025    -0.01860    -0.03155     0.10009     0.02386     0.11273
 PY  C   8  -0.11464    -0.03400     0.05622    -0.03634    -0.20205    -0.24699
 PZ  C   8   0.02596     0.00325    -0.01099     0.01046     0.01488     0.01784
  
  S  C   9  -0.01547     0.04505     0.02643    -0.12787    -0.01808    -0.13677
 PX  C   9  -0.14886    -0.01496     0.04980    -0.06177    -0.06234    -0.08101
 PY  C   9  -0.07949    -0.00867     0.02855     0.12435    -0.05038     0.21546
 PZ  C   9  -0.02177    -0.00317     0.00740     0.00453    -0.00988     0.00521
  
  S  C  10  -0.00921    -0.00165     0.00175     0.14312    -0.02837     0.18546
 PX  C  10   0.16384     0.02763    -0.01405    -0.06433     0.07223    -0.08688
[...]
  S   H   18    0.0885    0.0328   -0.0134   -0.0428    0.0226    0.3229    0.0030   -0.0341
  S   H   19    0.1791    0.2438    0.0733    0.2550    0.0658    0.0460   -0.0092    0.2001
  S   H   20   -0.1286    0.2562    0.2166    0.1188    0.2232   -0.0128    0.0831   -0.2255
  S   C   21   -0.1268    0.0636   -0.0499    0.0078   -0.0081    0.0005    0.0742    0.0256
  Px  C   21   -0.0990    0.0898   -0.3483    0.1379    0.0026    0.0006   -0.1029    0.0472
  Py  C   21    0.1483   -0.0970    0.1249   -0.0502    0.0023    0.0015    0.2889    0.1313
  Pz  C   21    0.0192   -0.0107    0.0281   -0.0119   -0.0013   -0.0002   -0.0034   -0.0096
  S   C   22   -0.0813    0.0344    0.0725   -0.0226    0.0029   -0.0005   -0.0938   -0.0599
  Px  C   22   -0.0836    0.0414    0.0653   -0.0213    0.0057    0.0034    0.4850    0.2205
  Py  C   22   -0.0827    0.0391   -0.0667    0.0208   -0.0023    0.0004   -0.0245    0.0088
  Pz  C   22   -0.0031    0.0011    0.0041   -0.0004    0.0009   -0.0001   -0.0089   -0.0052
  S   C   23    0.0394   -0.0150    0.0685   -0.0197    0.0047    0.0006    0.1031    0.0135
  Px  C   23    0.1108   -0.0506   -0.0086    0.0115    0.0153   -0.0028   -0.2097    0.0586
  Py  C   23   -0.0175    0.0095    0.1061   -0.0286    0.0149   -0.0031   -0.4122   -0.0932
  Pz  C   23   -0.0004    0.0004   -0.0114    0.0035   -0.0014    0.0004    0.0455    0.0025
  S   C   24    0.1053   -0.0470   -0.0056   -0.0038   -0.0023   -0.0007   -0.0804    0.0566
  Px  C   24   -0.0455    0.0246   -0.0602    0.0280    0.0098   -0.0019   -0.1936    0.0512
  Py  C   24    0.1943   -0.1528   -0.3106    0.0833   -0.0445    0.0000    0.2413   -0.1962
  Pz  C   24   -0.0279    0.0193    0.0431   -0.0154    0.0017    0.0002   -0.0253    0.0255
  S   H   25    0.2037   -0.1300    0.2642   -0.0994    0.0033    0.0004    0.1803    0.0463
  S   H   26    0.1137   -0.0546   -0.0608    0.0169   -0.0069   -0.0022   -0.3075   -0.1384
  S   H   27   -0.0595    0.0269   -0.0780    0.0166   -0.0169    0.0027    0.2779    0.0292
  S   H   28   -0.1956    0.1263    0.1838   -0.0434    0.0334   -0.0005   -0.1824    0.1140
  S   C   29   -0.1171    0.1079   -0.2743    0.1286    0.0274   -0.0007    0.0213    0.0323
  Px  C   29    0.1071   -0.0577   -0.0695    0.0529    0.0228    0.0011   -0.1290    0.0430
  Py  C   29   -0.1598    0.1627    0.1409   -0.0681   -0.0231   -0.0026   -0.0364    0.0142
  Pz  C   29    0.0072   -0.0089    0.0329   -0.0156   -0.0037   -0.0000   -0.0034   -0.0029
  S   C   30    0.1768   -0.1433   -0.2508    0.0946    0.0003    0.0007   -0.0158    0.0107
  Px  C   30    0.0526   -0.0939    0.0453   -0.0465   -0.0370    0.0009    0.1195   -0.2388
  Py  C   30   -0.1112    0.0903   -0.1460    0.0929    0.0403   -0.0033    0.1054   -0.0989
  Pz  C   30   -0.0093    0.0112    0.0314   -0.0040    0.0093    0.0000   -0.0097    0.0146


   Root No.      73        74        75        76        77        78        79        80

                73 A      74 A      75 A      76 A      77 A      78 A      79 A      80 A   

                 9.404     9.628    10.065    10.739    11.036    11.725    11.842    12.225
  
  S   C    1    0.0013    0.0750   -0.0228   -0.0628    0.0539    0.0186    0.0115   -0.0022
  Px  C    1   -0.0548    0.2406    0.1316   -0.2597   -0.1074   -0.1508    0.0524   -0.2080
  Py  C    1    0.0467    0.1050   -0.1635   -0.0095    0.2183    0.1491   -0.0087    0.1409
  Pz  C    1   -0.0028    0.0162    0.0046   -0.0155   -0.0019   -0.0071    0.0048   -0.0125
  S   C    2    0.0399   -0.0793   -0.0801    0.0545    0.0738    0.0381    0.0207    0.0130
  Px  C    2   -0.0407    0.2433    0.0728   -0.2649   -0.0128   -0.1095    0.0883   -0.2143
  Py  C    2    0.1658   -0.2306   -0.2320    0.0280    0.2040    0.0363    0.1304   -0.0923
  Pz  C    2   -0.0046    0.0205    0.0100   -0.0213   -0.0058   -0.0095    0.0043   -0.0139
  S   C    3   -0.0019   -0.0459   -0.0226    0.0713    0.0201    0.0196    0.0020    0.0130
  Px  C    3    0.1700   -0.1670   -0.2308   -0.0458    0.0121   -0.0101   -0.2331    0.0982
  Py  C    3    0.0783   -0.0354   -0.1405   -0.0335    0.2728    0.0069    0.3570   -0.2752
  Pz  C    3    0.0017    0.0011   -0.0025   -0.0008    0.0078   -0.0005    0.0131   -0.0081
  S   C    4    0.0088   -0.0497    0.0019    0.0383   -0.0555   -0.0250   -0.0131   -0.0024
  Px  C    4   -0.0222   -0.1799    0.2431   -0.1493   -0.1847    0.0367   -0.1587    0.2021
  Py  C    4   -0.0273   -0.1361    0.0815    0.0367    0.1433    0.0279    0.4024   -0.2232
  Pz  C    4   -0.0030   -0.0063    0.0078   -0.0006    0.0035    0.0016    0.0151   -0.0079
  S   C    5    0.0143   -0.1004    0.0445    0.0223   -0.1033   -0.0534   -0.0224   -0.0244
  Px  C    5   -0.0249   -0.0785    0.1787   -0.1764   -0.0747    0.0833   -0.1439    0.2280
  Py  C    5   -0.0673    0.3300   -0.0467   -0.1470    0.2274    0.1571    0.0047    0.1520
  Pz  C    5   -0.0051    0.0181    0.0032   -0.0178    0.0159    0.0170   -0.0060    0.0222
  S   C    6   -0.0339    0.0740    0.0576   -0.0834   -0.0046    0.0083   -0.0088    0.0210
  Px  C    6   -0.1216    0.1991    0.1822   -0.1947   -0.0325    0.0046   -0.0127    0.0251
  Py  C    6    0.0069    0.1454   -0.1210   -0.0743    0.2910    0.2484   -0.0422    0.2757
  Pz  C    6   -0.0130    0.0341    0.0121   -0.0281    0.0158    0.0176   -0.0057    0.0230
  S   C    7   -0.0955    0.0512    0.0642    0.0887    0.0286    0.0500    0.0492   -0.0170
  Px  C    7    0.1015   -0.1580   -0.1623    0.0465    0.0228    0.0513   -0.2133    0.1102
  Py  C    7   -0.3049    0.1169    0.1020    0.2672    0.0789    0.1621    0.0030   -0.0140
  Pz  C    7   -0.0372    0.0156    0.0156    0.0295    0.0098    0.0181    0.0059   -0.0033
  S   C    8    0.0179    0.0568   -0.0662    0.0543   -0.0781   -0.0693   -0.0496    0.0119
  Px  C    8    0.0173   -0.0455   -0.0076    0.1207   -0.1996   -0.1675    0.1247   -0.0312
  Py  C    8   -0.0250   -0.1981    0.1592   -0.0801    0.0745    0.0687    0.1759   -0.0724
  Pz  C    8    0.0011   -0.0032    0.0002    0.0040   -0.0077   -0.0061    0.0055   -0.0014
  S   C    9    0.0083    0.0441   -0.0327   -0.0009    0.0053   -0.0231   -0.0281   -0.0046
  Px  C    9    0.0438    0.0020   -0.0557    0.1472   -0.2780   -0.2119    0.0683   -0.0218
  Py  C    9    0.0251    0.0333    0.1107    0.1530   -0.1264    0.4157   -0.0822   -0.1018
  Pz  C    9    0.0007    0.0012    0.0040    0.0077   -0.0084    0.0123   -0.0016   -0.0047
  S   C   10    0.0017    0.0311    0.0356    0.0122    0.0109    0.0131    0.0207    0.0011
  Px  C   10   -0.2668    0.1079   -0.0700    0.2634    0.1261   -0.2535    0.0302    0.1013
  Py  C   10   -0.1612   -0.0047    0.0974    0.2037    0.0734    0.4105   -0.0931   -0.0307
  Pz  C   10   -0.0156    0.0013    0.0026    0.0190    0.0068    0.0175   -0.0069    0.0009
  S   C   11    0.1147   -0.0147    0.0798   -0.0684   -0.0118    0.0770    0.0420    0.0042
  Px  C   11   -0.1610    0.1081    0.0018    0.2190    0.1011   -0.2042    0.0865    0.1218
  Py  C   11    0.3263    0.0141    0.2015   -0.0778    0.0161    0.0847    0.1387    0.0958
  Pz  C   11    0.0098    0.0034    0.0106    0.0022    0.0046   -0.0018    0.0085    0.0072
  S   H   12    0.2105   -0.0205    0.1003   -0.0843   -0.0233    0.0992    0.0536    0.0242
  S   C   13    0.0135    0.0345   -0.0598   -0.0611    0.0573   -0.0581   -0.0567   -0.0243
  Px  C   13    0.1045    0.1642   -0.1398    0.0216   -0.0655    0.0465   -0.2022   -0.1902
  Py  C   13   -0.0318   -0.0381    0.1173    0.2095   -0.1927    0.1885    0.0319   -0.0167
  Pz  C   13    0.0001   -0.0013    0.0078    0.0134   -0.0128    0.0125    0.0032   -0.0013
  S   H   14   -0.1870    0.1066    0.1030    0.1125    0.0396    0.0764    0.0683   -0.0435
  S   H   15    0.0064    0.1300   -0.0359   -0.0891    0.0695    0.0218    0.0145   -0.0003
  S   H   16    0.1041   -0.1943   -0.1505    0.0901    0.1231    0.0536    0.0543    0.0056
  S   H   17    0.0270   -0.1907    0.0740    0.0262   -0.1383   -0.0599   -0.0435   -0.0170
  S   H   18   -0.0757    0.1138    0.1176   -0.1160   -0.0297   -0.0033   -0.0104    0.0103
  S   H   19    0.0188    0.0801   -0.0785    0.0593   -0.0894   -0.0846   -0.0545    0.0306
  S   H   20    0.0404    0.0584   -0.0978   -0.1010    0.0851   -0.0964   -0.0641   -0.0352
  S   C   21   -0.0853   -0.0440   -0.0765   -0.0543   -0.0718    0.0535    0.0351   -0.0087
  Px  C   21    0.1341   -0.0356    0.1694   -0.1112    0.1390    0.0467   -0.1133   -0.2015
  Py  C   21   -0.2600   -0.1844   -0.1306   -0.2069   -0.1103    0.1544    0.0491   -0.1102
  Pz  C   21   -0.0024    0.0106   -0.0080    0.0187   -0.0045   -0.0118    0.0053    0.0191
  S   C   22    0.0297    0.0634   -0.0437    0.0555   -0.0515    0.0128    0.0161    0.0056
  Px  C   22   -0.1054   -0.2073    0.1316   -0.1351    0.1293   -0.0341   -0.0392   -0.0073
  Py  C   22   -0.1344   -0.0608   -0.1842   -0.1784   -0.2039    0.2545    0.0548   -0.2144
  Pz  C   22    0.0145    0.0095    0.0127    0.0177    0.0132   -0.0193   -0.0032    0.0175
  S   C   23    0.0695    0.0236    0.0796    0.0814    0.0394   -0.0353   -0.0165    0.0035
  Px  C   23   -0.2011   -0.1542   -0.0148   -0.1891    0.1618   -0.1513   -0.0335    0.1670
  Py  C   23   -0.1638    0.0043   -0.2476   -0.1165   -0.1907    0.1677    0.0531   -0.1093
  Pz  C   23    0.0258    0.0097    0.0198    0.0201    0.0053   -0.0045   -0.0016   -0.0002
  S   C   24   -0.0820   -0.0766    0.0407   -0.0264    0.0810   -0.0522   -0.0436    0.0032
  Px  C   24   -0.2068   -0.1465   -0.0727   -0.2315    0.0875   -0.0897    0.0088    0.1666
  Py  C   24    0.1760    0.1793   -0.1620   -0.0639   -0.1513    0.0626    0.1282    0.1098
  Pz  C   24   -0.0153   -0.0181    0.0251    0.0180    0.0162   -0.0042   -0.0167   -0.0207
  S   H   25   -0.1712   -0.0755   -0.1195   -0.0639   -0.1018    0.0642    0.0659    0.0120
  S   H   26    0.0656    0.1297   -0.0807    0.0831   -0.0783    0.0203    0.0251    0.0054
  S   H   27    0.1491    0.0483    0.1286    0.1171    0.0439   -0.0360   -0.0176    0.0023
  S   H   28   -0.1476   -0.1321    0.0606   -0.0354    0.1027   -0.0594   -0.0623   -0.0057
  S   C   29   -0.0141   -0.0442   -0.0079   -0.0722   -0.0339    0.0445    0.0388    0.0075
  Px  C   29    0.1916   -0.0098    0.2518   -0.0395    0.2156   -0.0058   -0.1506   -0.1962
  Py  C   29    0.1631    0.0453    0.1409    0.0119   -0.0631    0.0547    0.3453    0.2930
  Pz  C   29    0.0050    0.0055    0.0030    0.0064   -0.0011   -0.0017    0.0099    0.0112
  S   C   30   -0.0357   -0.0345   -0.0053   -0.0481    0.0366   -0.0172   -0.0180    0.0013
  Px  C   30    0.1069    0.1890   -0.2191   -0.0600   -0.0143   -0.0259   -0.2381   -0.1856
  Py  C   30    0.0644    0.0608   -0.1291   -0.1275   -0.1877    0.0754    0.3350    0.3247
  Pz  C   30   -0.0047   -0.0095    0.0184    0.0152    0.0113   -0.0032   -0.0131   -0.0159


   Root No.      81        82        83        84

                81 A      82 A      83 A      84 A   

                12.539    12.774    13.201    14.526
  
  S   C    1   -0.0507   -0.0452   -0.0077    0.0421
  Px  C    1   -0.0456   -0.2760   -0.1613    0.1155
  Py  C    1   -0.1019    0.0794    0.0974    0.0220
  Pz  C    1   -0.0042   -0.0172   -0.0091    0.0081
  S   C    2   -0.0196    0.0018    0.0126    0.0284
  Px  C    2   -0.0905   -0.3148   -0.1622    0.1661
  Py  C    2   -0.0956   -0.1420   -0.0264    0.1311
  Pz  C    2   -0.0055   -0.0196   -0.0099    0.0088
  S   C    3    0.0071    0.0065   -0.0076    0.0292
  Px  C    3   -0.1414   -0.2522   -0.2545    0.2580
  Py  C    3   -0.0696   -0.1703    0.0355    0.1080
  Pz  C    3   -0.0004    0.0006    0.0058   -0.0009
  S   C    4   -0.0020    0.0016    0.0150    0.0340
  Px  C    4   -0.2516    0.0011    0.1273    0.2016
  Py  C    4   -0.1133   -0.0261    0.2474    0.1197
  Pz  C    4   -0.0072   -0.0022    0.0110    0.0078
  S   C    5    0.0167   -0.0230   -0.0227    0.0189
  Px  C    5   -0.2612    0.0201    0.1283    0.1640
  Py  C    5   -0.1671    0.0635    0.1268    0.0497
  Pz  C    5   -0.0233    0.0066    0.0149    0.0092
  S   C    6   -0.0612   -0.0211    0.0173    0.0391
  Px  C    6   -0.1158   -0.0547    0.0238    0.0757
  Py  C    6   -0.2193    0.1453    0.1987    0.0580
  Pz  C    6   -0.0283    0.0044    0.0163    0.0119
  S   C    7    0.0560    0.0375    0.0190   -0.0012
  Px  C    7   -0.0993   -0.2249   -0.2526    0.2788
  Py  C    7    0.0788   -0.0707   -0.0866    0.1402
  Pz  C    7    0.0107   -0.0028   -0.0046    0.0100
  S   C    8    0.0391    0.0351   -0.0021    0.0165
  Px  C    8   -0.1622    0.0795    0.2784    0.2682
  Py  C    8   -0.1497   -0.0471    0.1602    0.1132
  Pz  C    8   -0.0075    0.0023    0.0111    0.0102
  S   C    9    0.0551    0.0190   -0.0104   -0.0051
  Px  C    9   -0.0968    0.1019    0.2725    0.2773
  Py  C    9    0.1673   -0.1882    0.1245    0.1130
  Pz  C    9    0.0052   -0.0053    0.0102    0.0093
  S   C   10    0.0435    0.0462   -0.0038   -0.0008
  Px  C   10   -0.0480    0.1237   -0.1899    0.2968
  Py  C   10    0.1121   -0.2382   -0.1105    0.1241
  Pz  C   10    0.0042   -0.0123   -0.0122    0.0155
  S   C   11    0.0615    0.0279   -0.0108   -0.0138
  Px  C   11    0.0155    0.1826   -0.2056    0.2892
  Py  C   11    0.1530    0.1191   -0.1341    0.1237
  Pz  C   11    0.0076    0.0113   -0.0121    0.0134
  S   H   12    0.0657    0.0016   -0.0161   -0.0093
  S   C   13    0.0382    0.0326    0.0014   -0.0127
  Px  C   13    0.1940    0.0052    0.2643    0.2215
  Py  C   13    0.0429   -0.0966    0.1205    0.1374
  Pz  C   13    0.0008   -0.0044    0.0053    0.0073
  S   H   14    0.0624    0.0175    0.0276   -0.0094
  S   H   15   -0.0604   -0.0463   -0.0027    0.0413
  S   H   16   -0.0224    0.0145    0.0342    0.0170
  S   H   17    0.0209   -0.0252   -0.0339    0.0111
  S   H   18   -0.0611   -0.0347    0.0072    0.0393
  S   H   19    0.0170    0.0423   -0.0043    0.0152
  S   H   20    0.0112    0.0497    0.0014   -0.0160
  S   C   21   -0.0253    0.0119   -0.0159   -0.0261
  Px  C   21    0.1088    0.3114   -0.1080    0.1911
  Py  C   21    0.0021    0.2114   -0.1207    0.0648
  Pz  C   21   -0.0086   -0.0310    0.0125   -0.0153
  S   C   22   -0.0611   -0.0353    0.0015   -0.0384
  Px  C   22    0.1356    0.0632    0.0066    0.0747
  Py  C   22   -0.0811    0.3257   -0.1953    0.0788
  Pz  C   22    0.0025   -0.0284    0.0156   -0.0092
  S   C   23   -0.0620   -0.0330   -0.0036   -0.0380
  Px  C   23    0.3398   -0.1355    0.1759    0.0884
  Py  C   23   -0.0540    0.1585   -0.0955    0.0316
  Pz  C   23   -0.0148   -0.0050   -0.0026   -0.0075
  S   C   24    0.0164   -0.0244    0.0222   -0.0195
  Px  C   24    0.3790   -0.1009    0.1674    0.1293
  Py  C   24    0.1770   -0.0013    0.0291    0.1041
  Pz  C   24   -0.0375    0.0044   -0.0105   -0.0180
  S   H   25   -0.0280    0.0124   -0.0303   -0.0184
  S   H   26   -0.0789   -0.0351   -0.0057   -0.0400
  S   H   27   -0.0718   -0.0371   -0.0028   -0.0376
  S   H   28    0.0274   -0.0266    0.0349   -0.0087
  S   C   29    0.0145    0.0084   -0.0045   -0.0264
  Px  C   29    0.1137    0.3040   -0.1109    0.2262
  Py  C   29    0.1409    0.0801   -0.2155    0.1417
  Pz  C   29    0.0035   -0.0004   -0.0059    0.0055
  S   C   30    0.0168    0.0017   -0.0060   -0.0203
  Px  C   30    0.2239    0.0349    0.2450    0.1949
  Py  C   30    0.2312   -0.0622   -0.0435    0.0862
  Pz  C   30   -0.0281    0.0028   -0.0069   -0.0119


              NET ATOMIC CHARGES AND DIPOLE CONTRIBUTIONS

  ATOM NO.   TYPE          CHARGE      No. of ELECS.   s-Pop       p-Pop       
    1          C          -0.034204        4.0342     1.10656     2.92764
    2          C          -0.025834        4.0258     1.08443     2.94140
    3          C           0.020469        3.9795     1.04886     2.93067
    4          C           0.001710        3.9983     1.08281     2.91548
    5          C          -0.034777        4.0348     1.10403     2.93074
    6          C          -0.021656        4.0217     1.09348     2.92818
    7          C          -0.031739        4.0317     1.08681     2.94493
    8          C          -0.032518        4.0325     1.09669     2.93583
    9          C           0.015185        3.9848     1.06264     2.92217
   10          C           0.009016        3.9910     1.06683     2.92416
   11          C          -0.031016        4.0310     1.09634     2.93468
   12          H           0.021857        0.9781     0.97814
   13          C          -0.044544        4.0445     1.10680     2.93774
   14          H           0.026323        0.9737     0.97368
   15          H           0.027687        0.9723     0.97231
   16          H           0.026426        0.9736     0.97357
   17          H           0.030456        0.9695     0.96954
   18          H           0.023574        0.9764     0.97643
   19          H           0.019429        0.9806     0.98057
   20          H           0.035070        0.9649     0.96493
   21          C          -0.034581        4.0346     1.09890     2.93568
   22          C          -0.021718        4.0217     1.08439     2.93733
   23          C          -0.025163        4.0252     1.08543     2.93974
   24          C          -0.032015        4.0320     1.10834     2.92368
   25          H           0.017053        0.9829     0.98295
   26          H           0.026901        0.9731     0.97310
   27          H           0.025485        0.9745     0.97452
   28          H           0.022332        0.9777     0.97767
   29          C           0.014351        3.9856     1.06351     2.92214
   30          C           0.006442        3.9936     1.07651     2.91705
 DIPOLE           X         Y         Z       TOTAL
 POINT-CHG.    -0.148    -0.097    -0.048     0.183
 HYBRID         0.030     0.119    -0.315     0.338
 SUM           -0.117     0.021    -0.363     0.382


          ATOMIC ORBITAL ELECTRON POPULATIONS

     Atom    s        px        py        pz   
    1  C   1.10656   0.97133   0.95121   1.00510
    2  C   1.08443   0.97447   0.96692   1.00001
    3  C   1.04886   0.97111   0.97205   0.98751
    4  C   1.08281   0.96053   0.97665   0.97830
    5  C   1.10403   0.96903   0.95573   1.00599
    6  C   1.09348   0.95009   0.99149   0.98660
    7  C   1.08681   0.96724   0.96397   1.01372
    8  C   1.09669   0.96463   0.95326   1.01793
    9  C   1.06264   0.97051   0.96854   0.98313
   10  C   1.06683   0.96798   0.97250   0.98367
   11  C   1.09634   0.96586   0.94962   1.01920
   12  H   0.97814
   13  C   1.10680   0.97523   0.94834   1.01418
   14  H   0.97368
   15  H   0.97231
   16  H   0.97357
   17  H   0.96954
   18  H   0.97643
   19  H   0.98057
   20  H   0.96493
   21  C   1.09890   0.96071   0.96023   1.01475
   22  C   1.08439   0.94903   0.99642   0.99188
   23  C   1.08543   0.97951   0.95754   1.00269
   24  C   1.10834   0.96571   0.95736   1.00061
   25  H   0.98295
   26  H   0.97310
   27  H   0.97452
   28  H   0.97767
   29  C   1.06351   0.96181   0.97893   0.98140
   30  C   1.07651   0.97225   0.97172   0.97308

 **********************
 *                    *
 * JOB ENDED NORMALLY *
 *                    *
 **********************



 TOTAL JOB TIME:             2.26 SECONDS

 == MOPAC DONE ==


          MOPAC Job: "./tetraceneTraj/tetracene_2378.mop" ended normally on Feb 15, 2023, at 11:42.

rm: cannot remove ./tetraceneTraj/tetracene_2378.cim: No such file or directory
rm: cannot remove ./tetraceneTraj/tetracene_2378.end: No such file or directory
rm: cannot remove ./tetraceneTraj/tetracene_2378.log: No such file or directory
rm: cannot remove ./tetraceneTraj/tetracene_2378.temp: No such file or directory
rm: cannot remove ./tetraceneTraj/tetracene_2378.ple: No such file or directory
rm: cannot remove ./tetraceneTraj/tetracene_2378.sts: No such file or directory
