 *******************************************************************************
 ** Site#:    0         For non-commercial use only    Version 20.173L 64BITS **
 *******************************************************************************
 ** Cite this program as: MOPAC2016, Version: 20.173L, James J. P. Stewart,   **
 ** Stewart Computational Chemistry, web-site: HTTP://OpenMOPAC.net.          **
 *******************************************************************************
 **                                                                           **
 **                                MOPAC2016                                  **
 **                                                                           **
 *******************************************************************************

                              INDO CALCULATION RESULTS

 *******************************************************************************
 *  CALCULATION DONE:                                Wed Feb 15 11:38:32 2023  *
 *  INDO       - The INDO Hamiltonian to be used
 *
 *
 *
 *                 CHARGE ON SYSTEM = 0
 *
 *
 *
 *  C.I.=(N,M) - 3 DOUBLY FILLED LEVELS USED IN A C.I. INVOLVING 6 M.O.'S
 *  T=         - A TIME OF 172800.0 SECONDS REQUESTED
 *  DUMP=N     - RESTART FILE WRITTEN EVERY 7200.0 SECONDS REQUESTED
 *  RELSCF     - DEFAULT SCF CRITERION MULTIPLIED BY 0.0000
 *              (DEFAULT SCF CRITERION = 0.00010)
 *  ALLVEC     - PRINT ALL EIGENVECTORS
 **********
 *  WARNING: Specified print options may not behave as expected with INDO
 **********
 *******************************************************************************
INDO C.I.=(6,3) AllVEC CHARGE=0 RELSCF=0.000001


   ATOM   CHEMICAL          X               Y               Z
  NUMBER   SYMBOL      (ANGSTROMS)     (ANGSTROMS)     (ANGSTROMS)
 
     1       C         18.46273308  *  19.49324714  *  22.36713128  *
     2       C         19.87952978  *  19.44150909  *  22.44481530  *
     3       C         20.68900995  *  20.66709230  *  22.42681132  *
     4       C         19.98948141  *  21.99310867  *  22.45238817  *
     5       C         18.53788709  *  21.94245201  *  22.44693523  *
     6       C         17.78194313  *  20.76773712  *  22.35481405  *
     7       C         22.07404959  *  20.63759979  *  22.51077176  *
     8       C         20.70885135  *  23.20486459  *  22.56154092  *
     9       C         22.12577504  *  23.17955222  *  22.51960500  *
    10       C         22.80354305  *  21.86073346  *  22.54872026  *
    11       C         24.27414291  *  21.84025571  *  22.56359418  *
    12       H         24.74387676  *  20.84959951  *  22.47372620  *
    13       C         22.93015143  *  24.36428742  *  22.58041139  *
    14       H         22.64449181  *  19.71227467  *  22.46500749  *
    15       H         17.77637667  *  18.64373320  *  22.55942446  *
    16       H         20.34105878  *  18.42726169  *  22.47207882  *
    17       H         17.93507935  *  22.90134137  *  22.46351256  *
    18       H         16.70710907  *  20.78005883  *  22.17565107  *
    19       H         20.23618111  *  24.16589932  *  22.61562772  *
    20       H         22.50499500  *  25.36921216  *  22.64258459  *
    21       C         26.52310610  *  23.02129232  *  22.58457773  *
    22       C         27.20509993  *  24.23436169  *  22.43188001  *
    23       C         26.48824470  *  25.49645861  *  22.50211764  *
    24       C         25.13450485  *  25.54220032  *  22.58978941  *
    25       H         27.03905247  *  22.04369463  *  22.50344139  *
    26       H         28.29301019  *  24.27824396  *  22.36423626  *
    27       H         27.02308729  *  26.45918813  *  22.55408041  *
    28       H         24.53129273  *  26.45649907  *  22.55958797  *
    29       C         25.06877406  *  23.00762814  *  22.55140172  *
    30       C         24.34201968  *  24.29831150  *  22.57537767  *
 


          CARTESIAN COORDINATES 

    NO.       ATOM           X           Y           Z

     1         C         18.4627     19.4932     22.3671
     2         C         19.8795     19.4415     22.4448
     3         C         20.6890     20.6671     22.4268
     4         C         19.9895     21.9931     22.4524
     5         C         18.5379     21.9425     22.4469
     6         C         17.7819     20.7677     22.3548
     7         C         22.0740     20.6376     22.5108
     8         C         20.7089     23.2049     22.5615
     9         C         22.1258     23.1796     22.5196
    10         C         22.8035     21.8607     22.5487
    11         C         24.2741     21.8403     22.5636
    12         H         24.7439     20.8496     22.4737
    13         C         22.9302     24.3643     22.5804
    14         H         22.6445     19.7123     22.4650
    15         H         17.7764     18.6437     22.5594
    16         H         20.3411     18.4273     22.4721
    17         H         17.9351     22.9013     22.4635
    18         H         16.7071     20.7801     22.1757
    19         H         20.2362     24.1659     22.6156
    20         H         22.5050     25.3692     22.6426
    21         C         26.5231     23.0213     22.5846
    22         C         27.2051     24.2344     22.4319
    23         C         26.4882     25.4965     22.5021
    24         C         25.1345     25.5422     22.5898
    25         H         27.0391     22.0437     22.5034
    26         H         28.2930     24.2782     22.3642
    27         H         27.0231     26.4592     22.5541
    28         H         24.5313     26.4565     22.5596
    29         C         25.0688     23.0076     22.5514
    30         C         24.3420     24.2983     22.5754

           Empirical Formula: C18 H12  =    30 atoms



      MOLECULAR POINT GROUP   :   C2  


      RHF CALCULATION, NO. OF DOUBLY OCCUPIED LEVELS = 42

 WARNING: INDO only performs single-point calculations
  SCF CRITERION =    0.1000E-09

 Summary of symmetry occupancy in each shell:

 SHELL     
    1   42
    v   42
 TOTAL  84




    ROOT NO.    1           2           3           4           5           6

           -44.35615   -42.72296   -40.16266   -36.86968   -35.72379   -34.03880
  
  
  S  C   1   0.10915    -0.19160     0.29030     0.24811    -0.05980    -0.09424
 PX  C   1   0.02785    -0.04218     0.04331     0.00275    -0.03748    -0.07053
 PY  C   1   0.04040    -0.06797     0.09377     0.06752     0.01378     0.03466
 PZ  C   1   0.00326    -0.00562     0.00822     0.00663    -0.00280    -0.00514
  
  S  C   2   0.14073    -0.21223     0.23694     0.09990    -0.15858    -0.25050
 PX  C   2  -0.00070     0.02082    -0.07564    -0.10835    -0.03677    -0.04291
 PY  C   2   0.05759    -0.07974     0.06906     0.00191    -0.01799    -0.01994
 PZ  C   2  -0.00105     0.00242    -0.00477    -0.00449     0.00092     0.00167
  
  S  C   3   0.26830    -0.29115     0.09502    -0.17651    -0.16487    -0.21206
 PX  C   3   0.01336     0.03633    -0.14182    -0.13588    -0.07756    -0.06484
 PY  C   3   0.05762    -0.03490    -0.05608    -0.08693     0.08830     0.12132
 PZ  C   3   0.00695    -0.00595    -0.00259    -0.00933    -0.00364    -0.00456
  
  S  C   4   0.26852    -0.28897     0.09145    -0.15503     0.17971     0.20132
 PX  C   4   0.05367    -0.00599    -0.12787    -0.14912    -0.02009    -0.06548
 PY  C   4  -0.02217     0.05280    -0.08984    -0.04852     0.11783     0.12109
 PZ  C   4   0.00433    -0.00256    -0.00481    -0.00803     0.00604     0.00520
  
  S  C   5   0.14610    -0.22034     0.24820     0.12736     0.14872     0.24402
 PX  C   5   0.04787    -0.05407     0.01215    -0.05883     0.03826     0.03194
 PY  C   5  -0.03230     0.06192    -0.10322    -0.09125     0.03158     0.02867
 PZ  C   5  -0.00116     0.00293    -0.00632    -0.00691     0.00031    -0.00153
  
  S  C   6   0.11106    -0.19514     0.29674     0.26086     0.03878     0.09873
 PX  C   6   0.04922    -0.08011     0.10202     0.05812     0.00371     0.00662
 PY  C   6   0.00245    -0.00049    -0.01043    -0.02446     0.04228     0.07727
 PZ  C   6   0.00240    -0.00381     0.00455     0.00203     0.00059     0.00079
  
  S  C   7   0.24550    -0.16263    -0.13046    -0.23620    -0.30543    -0.21978
 PX  C   7  -0.03425     0.06998    -0.04572     0.07882    -0.02651     0.06525
 PY  C   7   0.08111    -0.03057    -0.08084    -0.05827    -0.00200     0.03766
 PZ  C   7  -0.00252     0.00307    -0.00065     0.00437     0.00443     0.00596
  
  S  C   8   0.24439    -0.15483    -0.13955    -0.19254     0.32916     0.22292
 PX  C   8   0.05334     0.01114    -0.09522    -0.00421     0.02135    -0.05601
 PY  C   8  -0.07029     0.07249     0.00633     0.09657     0.00969    -0.03408
 PZ  C   8  -0.00599     0.00562     0.00160     0.00777    -0.00563    -0.00636
  
  S  C   9   0.33088    -0.03530    -0.29402     0.02937     0.23096     0.04082
 PX  C   9   0.01946     0.08577    -0.02556     0.18586    -0.08961    -0.07646
 PY  C   9  -0.05066     0.05336     0.03497     0.10578     0.12066    -0.02096
 PZ  C   9   0.00538     0.00114    -0.00582     0.00454     0.00658    -0.00004
  
  S  C  10   0.32828    -0.04264    -0.28693    -0.00830    -0.22214    -0.02550
 PX  C  10  -0.03338     0.09109     0.01510     0.18151    -0.08280     0.04612
 PY  C  10   0.04395     0.04367    -0.04411     0.11286     0.13491     0.05702
 PZ  C  10  -0.00356     0.00246     0.00249     0.00487     0.00423     0.00192
  
  S  C  11   0.23154     0.11700    -0.15284     0.21593    -0.32467     0.16243
 PX  C  11  -0.04453     0.03361     0.08451    -0.00504     0.00988     0.08859
 PY  C  11   0.06710     0.06772    -0.01803     0.10398     0.00801     0.04705
 PZ  C  11  -0.00296    -0.00075     0.00224    -0.00121     0.00644    -0.00219
  
  S  H  12   0.07229     0.03234    -0.04683     0.05263    -0.16326     0.07548
  
  S  C  13   0.24075     0.12596    -0.15952     0.25941     0.28493    -0.17525
 PX  C  13   0.03059     0.07538     0.03478     0.07853    -0.02836    -0.09143
 PY  C  13  -0.07592    -0.00804     0.08509    -0.06480     0.00716    -0.05843
 PZ  C  13  -0.00217    -0.00064     0.00191    -0.00165    -0.00048    -0.00103
  
  S  H  14   0.07596    -0.04684    -0.04037    -0.06640    -0.15948    -0.10567
  
  S  H  15   0.02795    -0.05217     0.08869     0.09129    -0.02238    -0.03704
  
  S  H  16   0.04078    -0.06009     0.06438     0.02284    -0.07702    -0.12105
  
  S  H  17   0.04231    -0.06236     0.06788     0.03535     0.07546     0.12035
  
  S  H  18   0.02897    -0.05400     0.09172     0.09640     0.01703     0.04508
  
  S  H  19   0.07651    -0.04503    -0.04376    -0.04705     0.16490     0.10614
  
  S  H  20   0.07591     0.04304    -0.04313     0.07779     0.15217    -0.09853
  
  S  C  21   0.15489     0.24557     0.18705    -0.12038    -0.17364     0.31008
 PX  C  21  -0.04908    -0.05824    -0.00923    -0.05212     0.04472    -0.03519
 PY  C  21   0.03966     0.07788     0.08453    -0.09143     0.02802    -0.01318
 PZ  C  21  -0.00554    -0.00970    -0.00903     0.00853     0.00662    -0.01364
  
  S  C  22   0.12866     0.23574     0.23805    -0.25600    -0.04608     0.14226
 PX  C  22  -0.05696    -0.09679    -0.08212     0.05795     0.00452    -0.01054
 PY  C  22  -0.00274    -0.00035     0.00873    -0.02521     0.05443    -0.10364
 PZ  C  22   0.00627     0.01136     0.01101    -0.01050    -0.00166     0.00523
  
  S  C  23   0.13368     0.24421     0.24493    -0.25652     0.08535    -0.12926
 PX  C  23  -0.03580    -0.05684    -0.03983     0.00797    -0.04919     0.09704
 PY  C  23  -0.04587    -0.07991    -0.07205     0.06129     0.02135    -0.05702
 PZ  C  23   0.00203     0.00357     0.00320    -0.00237     0.00265    -0.00532
  
  S  C  24   0.16557     0.26075     0.19424    -0.10601     0.18746    -0.30771
 PX  C  24   0.00630     0.03591     0.07270    -0.12011    -0.03212     0.04022
 PY  C  24  -0.06217    -0.08938    -0.05054     0.00002    -0.01038     0.00780
 PZ  C  24  -0.00394    -0.00690    -0.00636     0.00570    -0.00353     0.00604
  
  S  H  25   0.04554     0.06931     0.04902    -0.02835    -0.08807     0.14817
  
  S  H  26   0.03319     0.06457     0.07297    -0.09400    -0.01871     0.06130
  
  S  H  27   0.03492     0.06749     0.07525    -0.09330     0.03795    -0.06338
  
  S  H  28   0.05305     0.07852     0.05086    -0.01532     0.09998    -0.16077
  
  S  C  29   0.26678     0.29116     0.04354     0.16455    -0.20551     0.22696
 PX  C  29  -0.04429     0.01689     0.11856    -0.16082    -0.01940     0.08855
 PY  C  29   0.03215     0.07003     0.07294    -0.05060     0.10855    -0.10333
 PZ  C  29   0.00138     0.00152    -0.00036     0.00299     0.00011     0.00005
  
  S  C  30   0.27682     0.29893     0.03716     0.19428     0.14420    -0.20394
 PX  C  30  -0.00161     0.06576     0.13042    -0.14323    -0.07044     0.05824
 PY  C  30  -0.04797    -0.01524     0.06165    -0.09405     0.11137    -0.15081
 PZ  C  30  -0.00163    -0.00197    -0.00093     0.00066     0.00098    -0.00107




    ROOT NO.    7           8           9          10          11          12

           -31.63036   -31.34185   -28.78666   -28.30575   -26.91551   -25.99290
  
  
  S  C   1   0.17384     0.27375     0.18451    -0.23687    -0.01330     0.21465
 PX  C   1   0.11839    -0.08844     0.11486     0.16473     0.04599     0.05825
 PY  C   1  -0.07162     0.02593    -0.09108     0.00504    -0.06237    -0.09326
 PZ  C   1   0.01043     0.00724     0.01314    -0.00624     0.00208     0.01646
  
  S  C   2   0.32836    -0.03708     0.20309     0.13066     0.12305     0.01827
 PX  C   2  -0.01631    -0.13373    -0.11872     0.09167     0.04655    -0.20960
 PY  C   2  -0.00780    -0.08013    -0.05938     0.08947    -0.07778    -0.08809
 PZ  C   2  -0.00367    -0.00218    -0.00414    -0.00179     0.00003    -0.00267
  
  S  C   3   0.12205    -0.24317    -0.08903     0.11352    -0.09952    -0.17850
 PX  C   3  -0.04974     0.04338    -0.13971    -0.15999     0.04892    -0.09390
 PY  C   3  -0.11401    -0.01310    -0.00254    -0.08293    -0.17852     0.13732
 PZ  C   3   0.00089    -0.00493    -0.00459    -0.00332    -0.00288    -0.00385
  
  S  C   4  -0.10310    -0.26646     0.10659     0.10826    -0.07182     0.20528
 PX  C   4   0.11308     0.03490     0.04264    -0.17399    -0.12251    -0.03162
 PY  C   4  -0.02225     0.03750     0.10302    -0.09991     0.16127     0.09010
 PZ  C   4   0.00136    -0.00297     0.00828    -0.00582     0.00400     0.00807
  
  S  C   5  -0.31200    -0.07874    -0.16967     0.16184     0.10235    -0.06384
 PX  C   5   0.03065    -0.15116     0.13798     0.12102    -0.01675     0.20828
 PY  C   5   0.00514    -0.07500     0.06610     0.02594     0.09802     0.08345
 PZ  C   5   0.00638    -0.00641     0.01096     0.00227     0.00297     0.01333
  
  S  C   6  -0.18314     0.26019    -0.21125    -0.21617    -0.04102    -0.19159
 PX  C   6   0.00311    -0.02963     0.03275     0.09449    -0.02282     0.06372
 PY  C   6  -0.13507    -0.09761    -0.13016     0.14683     0.05384    -0.14379
 PZ  C   6   0.00023    -0.00434     0.00390     0.00952     0.00117     0.00798
  
  S  C   7  -0.12339     0.01148    -0.23293    -0.11561     0.15801    -0.04742
 PX  C   7  -0.13660     0.14228     0.04454    -0.01118     0.13706     0.19747
 PY  C   7  -0.07494     0.08048     0.01193    -0.07995    -0.14987     0.13293
 PZ  C   7  -0.00311     0.00586     0.00573    -0.00008    -0.00182     0.01087
  
  S  C   8   0.11959     0.01142     0.21480    -0.14718     0.18731     0.00242
 PX  C   8   0.12345     0.15810    -0.04402    -0.07156    -0.08103    -0.18263
 PY  C   8   0.06831     0.07767    -0.02592     0.03315     0.17889    -0.13488
 PZ  C   8   0.00220     0.00480    -0.00498     0.00401     0.00484    -0.00736
  
  S  C   9   0.19835     0.25286     0.00477     0.01738    -0.09027    -0.17462
 PX  C   9  -0.05604     0.01150    -0.09694     0.19726    -0.11535     0.05205
 PY  C   9   0.12299    -0.02348    -0.05552     0.08776     0.22100    -0.13033
 PZ  C   9   0.00722     0.00679    -0.00131     0.00336     0.00231    -0.00752
  
  S  C  10  -0.20891     0.24528    -0.00413     0.01447    -0.08025     0.18761
 PX  C  10  -0.07686    -0.00898     0.11068     0.16784     0.13554     0.05728
 PY  C  10   0.12453     0.02911     0.07117     0.10329    -0.22172    -0.09489
 PZ  C  10   0.00309    -0.00070     0.00322     0.00402     0.00118    -0.00122
  
  S  C  11  -0.17752     0.00818     0.24740     0.10805     0.19008     0.00089
 PX  C  11   0.10701    -0.14789     0.05359    -0.09435     0.05410    -0.19005
 PY  C  11   0.06273    -0.07459     0.04034     0.03839    -0.19200    -0.10325
 PZ  C  11   0.00422    -0.00183    -0.00290    -0.00128    -0.00829    -0.00220
  
  S  H  12  -0.09236     0.00605     0.10843     0.00876     0.22445     0.00732
  
  S  C  13   0.16244     0.00285    -0.24335     0.13552     0.17061     0.00158
 PX  C  13  -0.10143    -0.14993    -0.05553    -0.01511    -0.10168     0.19939
 PY  C  13  -0.05496    -0.09057    -0.04390    -0.10329     0.16410     0.10906
 PZ  C  13  -0.00145    -0.00278    -0.00124    -0.00354     0.00501     0.00377
  
  S  H  14  -0.06490     0.00873    -0.10247    -0.02120     0.21060    -0.02959
  
  S  H  15   0.07605     0.15279     0.09222    -0.17933     0.00460     0.13161
  
  S  H  16   0.15743    -0.00889     0.10020     0.04001     0.11960     0.00424
  
  S  H  17  -0.15331    -0.02866    -0.08926     0.05378     0.11033    -0.05653
  
  S  H  18  -0.09302     0.14411    -0.12599    -0.16251    -0.00751    -0.13830
  
  S  H  19   0.06251     0.00483     0.10023    -0.03790     0.22242    -0.02515
  
  S  H  20   0.07004    -0.01311    -0.12718     0.01269     0.21157     0.01508
  
  S  C  21   0.25419    -0.04185    -0.19113    -0.13187     0.12542     0.03052
 PX  C  21   0.02381     0.13114    -0.13116     0.13924     0.05126     0.17768
 PY  C  21   0.02159     0.07268    -0.07851     0.05126    -0.10030     0.10114
 PZ  C  21  -0.01348    -0.00414     0.01584    -0.00032    -0.00725    -0.01142
  
  S  C  22   0.15259     0.25407    -0.20762     0.25907     0.00181     0.19255
 PX  C  22   0.00173     0.02458    -0.03031     0.09443     0.05135     0.06242
 PY  C  22  -0.11734     0.08255     0.14860     0.13079    -0.06484    -0.10369
 PZ  C  22   0.00545     0.00506    -0.00611    -0.00082    -0.00282     0.00264
  
  S  C  23  -0.16158     0.25352     0.21995     0.22111    -0.02159    -0.18297
 PX  C  23   0.09634     0.08270    -0.09961     0.17423    -0.01741     0.06395
 PY  C  23  -0.07059    -0.02027     0.10765    -0.00472     0.06724    -0.10898
 PZ  C  23  -0.00645    -0.00125     0.00911    -0.00634     0.00132    -0.00875
  
  S  C  24  -0.24515    -0.04892     0.15900    -0.15733     0.10345    -0.01908
 PX  C  24  -0.03842     0.14387     0.15799     0.10163    -0.07589    -0.19334
 PY  C  24  -0.02343     0.07430     0.07430     0.07897     0.09297    -0.08995
 PZ  C  24   0.00647    -0.00345    -0.00728    -0.00046     0.00006     0.00498
  
  S  H  25   0.11705    -0.02161    -0.08670    -0.05397     0.13633     0.01173
  
  S  H  26   0.07340     0.13992    -0.11774     0.18728     0.02940     0.13354
  
  S  H  27  -0.08673     0.13589     0.13533     0.15619     0.01911    -0.13193
  
  S  H  28  -0.11632    -0.03346     0.05855    -0.07185     0.13322     0.01079
  
  S  C  29   0.06663    -0.23857     0.12513    -0.12830    -0.09982    -0.18109
 PX  C  29   0.10104    -0.00583    -0.07952    -0.16187     0.11221    -0.03897
 PY  C  29   0.01484    -0.03085    -0.11684    -0.06673    -0.17717     0.09750
 PZ  C  29  -0.00009    -0.00506     0.00290    -0.00359    -0.00419    -0.00470
  
  S  C  30  -0.04348    -0.24667    -0.11626    -0.10695    -0.10948     0.16384
 PX  C  30  -0.05228    -0.03160     0.12873    -0.16541    -0.08681    -0.06929
 PY  C  30  -0.07399     0.00049    -0.04822    -0.10042     0.18909     0.11543
 PZ  C  30   0.00012    -0.00181    -0.00168    -0.00213     0.00343     0.00214




    ROOT NO.   13          14          15          16          17          18

           -25.09150   -24.00423   -22.69893   -21.54192   -20.63823   -19.38100
  
  
  S  C   1  -0.00298    -0.11447     0.00476    -0.17671    -0.01414     0.02598
 PX  C   1   0.03573     0.24436    -0.01187     0.04917     0.21736     0.17888
 PY  C   1  -0.12318    -0.00073     0.20175     0.11938    -0.11472     0.17314
 PZ  C   1   0.00472    -0.00105    -0.00894    -0.02215     0.00985    -0.00578
  
  S  C   2   0.15860     0.18190    -0.14286     0.12563     0.09868    -0.01228
 PX  C   2   0.06671    -0.05406    -0.06500     0.14598    -0.16509    -0.18206
 PY  C   2  -0.16131    -0.01485     0.22970     0.08180    -0.16505     0.07837
 PZ  C   2   0.00245    -0.00622    -0.00687    -0.00466    -0.00212    -0.01182
  
  S  C   3  -0.12183    -0.11262     0.03458     0.09681    -0.08217    -0.13759
 PX  C   3   0.13270    -0.14600    -0.16255    -0.11259     0.01393     0.00864
 PY  C   3  -0.19257    -0.07209     0.03577    -0.10959     0.15955    -0.04513
 PZ  C   3   0.00064    -0.00786    -0.00714    -0.00365     0.00013    -0.00453
  
  S  C   4  -0.09859    -0.10838     0.01621    -0.10952    -0.04990    -0.14635
 PX  C   4  -0.08887    -0.13963    -0.06563     0.17759     0.10173    -0.05378
 PY  C   4   0.23333    -0.07830    -0.16839    -0.00488    -0.07606     0.01833
 PZ  C   4   0.00858    -0.00957    -0.00984    -0.00000    -0.00605    -0.00000
  
  S  C   5   0.14166     0.18182    -0.11964    -0.10773     0.11627     0.02358
 PX  C   5  -0.08516    -0.03793     0.14974    -0.18291    -0.17843    -0.03236
 PY  C   5   0.15606    -0.03711    -0.18169    -0.12159    -0.02823    -0.17448
 PZ  C   5   0.00341    -0.00475    -0.00240    -0.01468    -0.00716    -0.00372
  
  S  C   6  -0.01573    -0.11055     0.00116     0.15953    -0.04943    -0.00538
 PX  C   6  -0.08349     0.13210     0.17078    -0.08268     0.04378     0.27201
 PY  C   6   0.08843     0.20173    -0.11974     0.09296     0.22780     0.04532
 PZ  C   6  -0.00127     0.01523     0.00652    -0.01751     0.01359     0.02566
  
  S  C   7   0.14031    -0.09115     0.05310    -0.20343    -0.03131     0.16583
 PX  C   7   0.04957     0.14918     0.16162    -0.07400     0.03012     0.14690
 PY  C   7  -0.12164     0.09102    -0.03442     0.00040     0.21470    -0.01014
 PZ  C   7  -0.00296     0.01059     0.00372     0.00060     0.00746     0.00374
  
  S  C   8   0.14697    -0.10469     0.05088     0.18239    -0.08069     0.13752
 PX  C   8  -0.10702     0.15069     0.07175     0.09965     0.18052     0.06495
 PY  C   8   0.08439     0.06031     0.17527     0.03875    -0.10414     0.14193
 PZ  C   8   0.00230     0.00615     0.00858     0.00026    -0.00676     0.01108
  
  S  C   9  -0.03027     0.22014    -0.00768     0.00111    -0.00734    -0.01696
 PX  C   9  -0.00594     0.04692    -0.10237    -0.19972    -0.15912    -0.14362
 PY  C   9   0.02095    -0.08115     0.21465    -0.11519    -0.06483    -0.05987
 PZ  C   9   0.00050     0.00645     0.00540    -0.00146    -0.00228     0.00340
  
  S  C  10   0.00183     0.23715    -0.03208     0.00049    -0.00874    -0.00291
 PX  C  10   0.03520    -0.03276     0.11096     0.13300    -0.19618    -0.13961
 PY  C  10  -0.03236     0.07470    -0.19387     0.08515    -0.11743    -0.09576
 PZ  C  10   0.00146     0.00179     0.00272     0.00341    -0.00469     0.00092
  
  S  C  11  -0.11641    -0.10779     0.06344     0.21990     0.04037    -0.16256
 PX  C  11  -0.10885    -0.16609    -0.05554    -0.02625     0.20632     0.06053
 PY  C  11   0.05501    -0.07980    -0.16209    -0.05560    -0.09059     0.16475
 PZ  C  11   0.00492     0.00133    -0.00377    -0.00627    -0.00332     0.01115
  
  S  H  12  -0.11902    -0.05560     0.11440     0.13029     0.13346    -0.16824
  
  S  C  13  -0.11003    -0.09846     0.06878    -0.21011     0.09724    -0.14447
 PX  C  13   0.02891    -0.13682    -0.17457     0.08054     0.00339     0.14196
 PY  C  13  -0.09625    -0.08821     0.03613     0.05706     0.22172    -0.02294
 PZ  C  13  -0.00313    -0.00372     0.00129     0.00270     0.01134     0.00260
  
  S  H  14   0.15325    -0.04828     0.10284    -0.12389    -0.12701     0.14071
  
  S  H  15   0.04341    -0.15661    -0.09698    -0.17810    -0.04041    -0.17256
  
  S  H  16   0.19225     0.08651    -0.22778     0.05071     0.10607    -0.11192
  
  S  H  17   0.18507     0.08239    -0.21352    -0.05421     0.10487    -0.08192
  
  S  H  18   0.04343    -0.14191    -0.11296     0.14320    -0.05784    -0.20743
  
  S  H  19   0.15378    -0.06407     0.10928     0.08284    -0.15653     0.14101
  
  S  H  20  -0.12541    -0.06622     0.09788    -0.08586     0.18476    -0.12738
  
  S  C  21  -0.17911     0.18332    -0.10789    -0.13426    -0.11673    -0.01050
 PX  C  21  -0.07529     0.01073    -0.12523     0.13982    -0.22210     0.00806
 PY  C  21   0.18305     0.03182     0.15253     0.09735    -0.03298    -0.15319
 PZ  C  21   0.00881    -0.00880     0.00709    -0.00616     0.01507     0.00506
  
  S  C  22   0.03535    -0.13402    -0.00416     0.17672     0.02613    -0.00133
 PX  C  22  -0.09576    -0.14091    -0.16130     0.12620    -0.01154     0.25017
 PY  C  22   0.09127    -0.19733     0.08995    -0.02765     0.26346     0.01873
 PZ  C  22   0.00610     0.01236     0.00941    -0.00809    -0.00902    -0.02172
  
  S  C  23  -0.01576    -0.11934    -0.00016    -0.16588     0.06909    -0.01118
 PX  C  23   0.03670    -0.23376    -0.01032     0.00934     0.21268     0.13743
 PY  C  23  -0.16469    -0.00849    -0.18634    -0.13436    -0.11653     0.19921
 PZ  C  23  -0.00513     0.01236    -0.00373    -0.01097    -0.01713    -0.00243
  
  S  C  24  -0.15519     0.17064    -0.09503     0.11961    -0.13928    -0.00650
 PX  C  24   0.05851     0.03586     0.06586    -0.20108    -0.09043    -0.12693
 PY  C  24  -0.19484    -0.01073    -0.18642    -0.08102    -0.13104     0.10074
 PZ  C  24   0.00109    -0.00386    -0.00082     0.00191     0.00437     0.00750
  
  S  H  25  -0.21755     0.07818    -0.18070    -0.07757    -0.11080     0.08890
  
  S  H  26  -0.03844    -0.16563    -0.10714     0.17935     0.01421     0.18895
  
  S  H  27  -0.08660    -0.13912    -0.11215    -0.16510     0.03808     0.17551
  
  S  H  28  -0.20755     0.06682    -0.17251     0.08549    -0.10603     0.09994
  
  S  C  29   0.08040    -0.10331     0.00597    -0.08225     0.08886     0.14885
 PX  C  29  -0.09633     0.16957     0.06577    -0.15823     0.11781    -0.09781
 PY  C  29   0.25053     0.09602     0.12323    -0.03733    -0.08588     0.04464
 PZ  C  29   0.00391    -0.00267     0.00060    -0.00506     0.00574     0.01013
  
  S  C  30   0.15455    -0.09565     0.00501     0.09397     0.03274     0.14081
 PX  C  30   0.14555     0.15102     0.14654     0.10549    -0.01757    -0.00796
 PY  C  30  -0.16936     0.08501    -0.00545     0.14402     0.10668    -0.10965
 PZ  C  30  -0.00314    -0.00200    -0.00105     0.00168     0.00708     0.00511




    ROOT NO.   19          20          21          22          23          24

           -18.37048   -17.23455   -16.95822   -16.66139   -16.11580   -15.27825
  
  
  S  C   1   0.16217    -0.01210    -0.04858    -0.11039     0.05331     0.07478
 PX  C   1  -0.09854    -0.15160     0.04207     0.01428     0.15048     0.02564
 PY  C   1  -0.15621     0.17413    -0.00276     0.06302     0.20113    -0.03557
 PZ  C   1   0.03868    -0.01608    -0.00920    -0.02894    -0.01428     0.00758
  
  S  C   2  -0.15822     0.01740     0.00602     0.06967    -0.01167    -0.00725
 PX  C   2  -0.08009     0.18535    -0.01925     0.06852    -0.16296    -0.04626
 PY  C   2   0.00977     0.10302    -0.16795    -0.16971    -0.02093     0.27205
 PZ  C   2   0.01220     0.00032    -0.00357    -0.00439    -0.01344    -0.01416
  
  S  C   3   0.04320    -0.08386    -0.14148    -0.13338    -0.08562     0.05617
 PX  C   3   0.16431    -0.01590    -0.04770    -0.08354     0.22494    -0.13402
 PY  C   3   0.05184    -0.27182     0.11562     0.05490    -0.05218    -0.12073
 PZ  C   3   0.00754    -0.00011    -0.01779    -0.00947     0.00128    -0.01310
  
  S  C   4  -0.04655    -0.01233     0.15942     0.15757    -0.05635    -0.04233
 PX  C   4  -0.14603    -0.20573     0.05499    -0.03909     0.10635     0.14442
 PY  C   4  -0.10609     0.18524     0.03785     0.04248     0.24675     0.06769
 PZ  C   4  -0.00725     0.00945    -0.01872    -0.00976     0.01873    -0.00037
  
  S  C   5   0.17812     0.01579    -0.02063    -0.07254    -0.01433     0.01439
 PX  C   5   0.03448     0.19464     0.04312     0.15709    -0.12021    -0.17355
 PY  C   5   0.11276     0.04875    -0.13454    -0.10492    -0.12680     0.19236
 PZ  C   5   0.01749     0.00915    -0.02001    -0.02046     0.00146     0.01014
  
  S  C   6  -0.16989     0.01829     0.05509     0.10003     0.05872    -0.08125
 PX  C   6   0.15001     0.05920    -0.01174    -0.11882     0.24597    -0.01674
 PY  C   6  -0.01273    -0.20574     0.06829    -0.01434     0.01017    -0.02889
 PZ  C   6   0.04220    -0.00404    -0.01236    -0.04083     0.02669     0.00945
  
  S  C   7   0.08679    -0.01513     0.05153     0.03857     0.07534    -0.05170
 PX  C   7  -0.14832     0.02912     0.15853     0.17665    -0.15232     0.07525
 PY  C   7  -0.09802    -0.15273    -0.26974    -0.05578    -0.08721    -0.15703
 PZ  C   7  -0.01322    -0.00052    -0.01798     0.00589    -0.01914    -0.00850
  
  S  C   8  -0.11050    -0.02898    -0.02423    -0.05729     0.06713     0.03159
 PX  C   8   0.17090    -0.01181     0.17345    -0.00624    -0.15363     0.12486
 PY  C   8   0.06438    -0.08652    -0.28193    -0.14325    -0.15336    -0.17982
 PZ  C   8   0.00274    -0.00279    -0.04432    -0.01702    -0.01001    -0.02366
  
  S  C   9   0.15460     0.16350     0.14966    -0.00162    -0.07358     0.04585
 PX  C   9  -0.02280     0.09019    -0.08092     0.02678     0.07623    -0.12845
 PY  C   9   0.07883    -0.22055     0.12353     0.03299    -0.12038    -0.04674
 PZ  C   9   0.00164     0.00074    -0.02466    -0.00066    -0.01280    -0.00975
  
  S  C  10  -0.13249     0.08020    -0.23606     0.02790    -0.06455    -0.05068
 PX  C  10  -0.05716    -0.11655    -0.02045    -0.01362    -0.05035     0.08683
 PY  C  10   0.07932     0.24615     0.01974    -0.04346     0.12866     0.05949
 PZ  C  10  -0.00567    -0.00021    -0.02019     0.00387    -0.01474    -0.00345
  
  S  C  11   0.08965    -0.05574     0.02144    -0.06435     0.08125     0.01300
 PX  C  11   0.17758     0.07777     0.13945    -0.02090     0.12210    -0.07208
 PY  C  11   0.06072    -0.04092    -0.19134     0.18503     0.12462    -0.14749
 PZ  C  11  -0.00679     0.00043    -0.02469     0.01309    -0.01257    -0.00603
  
  S  H  12   0.06077     0.03060     0.22591    -0.18465    -0.00604     0.09575
  
  S  C  13  -0.08802    -0.06019     0.00162     0.03961     0.08833    -0.01482
 PX  C  13  -0.17307     0.07687     0.07819    -0.20301     0.10971     0.10311
 PY  C  13  -0.10563    -0.00934    -0.22958     0.10679     0.08665     0.02649
 PZ  C  13  -0.00950    -0.00038    -0.03099     0.00778    -0.00215     0.00093
  
  S  H  14   0.04930     0.10881     0.30450     0.13386     0.03785     0.12537
  
  S  H  15   0.22899    -0.04337    -0.04611    -0.10845    -0.19155     0.05368
  
  S  H  16  -0.11217     0.00085     0.13246     0.19428    -0.05008    -0.23859
  
  S  H  17   0.14648    -0.04420    -0.13585    -0.18612    -0.04906     0.23175
  
  S  H  18  -0.21056    -0.03989     0.03976     0.15541    -0.18210    -0.02983
  
  S  H  19  -0.07065    -0.08281    -0.29876    -0.13493    -0.01794    -0.17072
  
  S  H  20  -0.06107    -0.06498    -0.21808     0.18243     0.08029    -0.02011
  
  S  C  21  -0.15258     0.00673    -0.01181    -0.06312    -0.00625     0.05397
 PX  C  21   0.02202    -0.21231     0.13732    -0.18278     0.10424    -0.09591
 PY  C  21   0.09995    -0.15160    -0.06539     0.19988     0.19738     0.27330
 PZ  C  21  -0.00691     0.01358    -0.01059     0.00132    -0.01655     0.00240
  
  S  C  22   0.14782    -0.00485    -0.02432     0.09966     0.06526     0.01118
 PX  C  22   0.14906    -0.02729     0.04082     0.07665    -0.23636    -0.13178
 PY  C  22  -0.01277     0.27809    -0.04834    -0.04385    -0.08930    -0.16167
 PZ  C  22  -0.01890    -0.01372    -0.00493    -0.00938     0.02593     0.03504
  
  S  C  23  -0.15559     0.02084     0.01900    -0.11506     0.02988    -0.02060
 PX  C  23  -0.09164     0.19889    -0.08653     0.00792    -0.16362     0.18391
 PY  C  23  -0.13756    -0.16250     0.04042    -0.01401    -0.15974     0.17022
 PZ  C  23  -0.01164    -0.02636     0.00387    -0.00569     0.00263     0.01879
  
  S  C  24   0.17354     0.00584     0.00743     0.06299     0.00472    -0.08146
 PX  C  24  -0.09893    -0.19970     0.09444    -0.09541     0.16800    -0.14444
 PY  C  24   0.03833    -0.12144    -0.09306     0.26385     0.07765     0.20445
 PZ  C  24  -0.00523     0.00057    -0.00892     0.00300    -0.01455     0.02052
  
  S  H  25  -0.13591     0.03312     0.10408    -0.26137    -0.10625    -0.22621
  
  S  H  26   0.19367    -0.01557     0.02025     0.11499    -0.17474    -0.11569
  
  S  H  27  -0.21046    -0.02596     0.00113    -0.06278    -0.17324     0.20717
  
  S  H  28   0.15320     0.00716    -0.11699     0.27267    -0.00801     0.17870
  
  S  C  29   0.05057    -0.03352    -0.09780     0.20267    -0.05064     0.02586
 PX  C  29  -0.12167     0.22780    -0.08570     0.04676    -0.08991     0.11559
 PY  C  29  -0.10909    -0.13434     0.06865    -0.03215    -0.20686     0.12839
 PZ  C  29  -0.00670     0.00529    -0.01812     0.00907    -0.02011     0.00332
  
  S  C  30  -0.07052    -0.00603     0.12952    -0.18896    -0.12594     0.00959
 PX  C  30   0.16669    -0.02377    -0.02703     0.08500    -0.20189    -0.08842
 PY  C  30   0.05359     0.25949    -0.01768    -0.11279     0.00867    -0.10104
 PZ  C  30  -0.00618     0.00586    -0.01810     0.00319    -0.01269     0.00703




    ROOT NO.   25          26          27          28          29          30

           -14.94905   -14.85202   -14.61592   -14.44965   -13.80171   -13.50317
  
  
  S  C   1  -0.00919     0.04765    -0.00672    -0.01108    -0.04626     0.03673
 PX  C   1  -0.24943     0.18206    -0.04183     0.09890    -0.04184     0.10039
 PY  C   1   0.02402     0.03958     0.24888     0.07030    -0.07892     0.02476
 PZ  C   1   0.06897    -0.05988    -0.08039     0.08096    -0.02145    -0.21117
  
  S  C   2  -0.02152     0.04501     0.07642     0.04437     0.04127    -0.03039
 PX  C   2   0.23854    -0.16197     0.08970    -0.08043     0.07657    -0.11189
 PY  C   2  -0.05197     0.25293     0.00977     0.06696     0.07344    -0.08195
 PZ  C   2   0.07944    -0.06790    -0.05875     0.12725    -0.01405    -0.21752
  
  S  C   3  -0.03844     0.00374    -0.03598    -0.02116    -0.03442     0.00751
 PX  C   3   0.00796    -0.13906     0.08943    -0.02271    -0.20519     0.14331
 PY  C   3  -0.10405    -0.08779    -0.16210    -0.02870    -0.03015     0.06745
 PZ  C   3   0.09400    -0.06281    -0.07002     0.25294    -0.01697    -0.25517
  
  S  C   4  -0.01771     0.01101    -0.05261    -0.00340    -0.03248     0.01628
 PX  C   4  -0.07286     0.10739    -0.13981     0.01816    -0.20405    -0.07953
 PY  C   4   0.04832     0.09214     0.14347     0.04052    -0.18546    -0.01843
 PZ  C   4   0.08588    -0.04671    -0.06586     0.26004    -0.03115    -0.25641
  
  S  C   5   0.09442    -0.05072     0.01876    -0.03720     0.02980     0.00023
 PX  C   5   0.03372    -0.08124     0.12224    -0.00560     0.18310     0.09000
 PY  C   5  -0.07300     0.25663     0.16593     0.07822     0.10486     0.03816
 PZ  C   5   0.06497    -0.03405    -0.03818     0.14723    -0.02341    -0.21751
  
  S  C   6  -0.01036    -0.04436     0.01996     0.01522    -0.04936    -0.00312
 PX  C   6   0.19656    -0.17517     0.02834    -0.09357    -0.18847    -0.03323
 PY  C   6  -0.03814    -0.08883    -0.25189    -0.05767    -0.05124    -0.03013
 PZ  C   6   0.09072    -0.07176    -0.06024     0.07995    -0.05737    -0.21808
  
  S  C   7  -0.05027     0.02338    -0.01517     0.02991     0.03519     0.02028
 PX  C   7  -0.03006     0.14501    -0.06098     0.02034     0.22894    -0.11514
 PY  C   7  -0.06528    -0.08490     0.27238     0.06420     0.08504    -0.05027
 PZ  C   7   0.08243    -0.03564    -0.06085     0.25035     0.01809    -0.14780
  
  S  C   8   0.01093    -0.02918    -0.05767    -0.01223    -0.00193    -0.03480
 PX  C   8   0.22213     0.01719    -0.01269    -0.08405     0.20636     0.01830
 PY  C   8  -0.12623    -0.17241    -0.03867    -0.05263     0.18866     0.06342
 PZ  C   8   0.06494    -0.05445    -0.07116     0.24505     0.01684    -0.11822
  
  S  C   9  -0.02175    -0.00638     0.02485     0.00193     0.02060     0.02908
 PX  C   9  -0.25319    -0.02748     0.02272     0.10241    -0.19229     0.00738
 PY  C   9  -0.14455    -0.01265     0.00320     0.05988    -0.13350    -0.01342
 PZ  C   9   0.10002    -0.03813    -0.08879     0.30819     0.01895     0.00500
  
  S  C  10   0.03561     0.01650     0.01229    -0.01826    -0.00074    -0.02135
 PX  C  10   0.09709     0.02184    -0.22818    -0.11587    -0.25591     0.04218
 PY  C  10   0.04471    -0.00580    -0.10777    -0.04821    -0.08604     0.07750
 PZ  C  10   0.10337    -0.03149    -0.09548     0.29973     0.01040    -0.00892
  
  S  C  11   0.05758    -0.03318    -0.00574    -0.01189    -0.01119     0.05212
 PX  C  11  -0.10026    -0.02745     0.19426     0.11084     0.26058    -0.01162
 PY  C  11   0.09642     0.18665    -0.22020    -0.09210     0.16070     0.01162
 PZ  C  11   0.08004    -0.00931    -0.08491     0.22308     0.00939     0.13348
  
  S  H  12  -0.09483    -0.16824     0.24284     0.09563    -0.03446     0.00074
  
  S  C  13  -0.01782     0.03766     0.05026     0.04064    -0.03235    -0.03903
 PX  C  13  -0.06876    -0.15546    -0.04642    -0.00476     0.25589    -0.05836
 PY  C  13   0.33684     0.14802     0.01321    -0.13449     0.06518     0.00662
 PZ  C  13   0.10581    -0.01293    -0.06780     0.22836     0.02069     0.14405
  
  S  H  14   0.00787     0.13040    -0.23298    -0.03138     0.05762     0.00007
  
  S  H  15   0.12007    -0.10564    -0.17176    -0.09682     0.06164    -0.09126
  
  S  H  16   0.12761    -0.24720     0.05580    -0.06326    -0.00420     0.00187
  
  S  H  17  -0.03286     0.21130     0.07880     0.04980     0.01810    -0.01738
  
  S  H  18  -0.19377     0.14132    -0.01149     0.08007     0.16034     0.06131
  
  S  H  19  -0.17196    -0.14984    -0.05362    -0.00301     0.06738     0.02091
  
  S  H  20   0.28142     0.18490     0.03738    -0.07934    -0.05879     0.01677
  
  S  C  21   0.01076    -0.04674    -0.06722    -0.01762    -0.01678     0.03927
 PX  C  21   0.15815     0.06664    -0.00146    -0.04924     0.16860     0.06322
 PY  C  21   0.00918    -0.20852     0.11412     0.01682     0.13102     0.05920
 PZ  C  21   0.04688    -0.01005    -0.05277     0.14756    -0.00110     0.23844
  
  S  C  22  -0.04858    -0.01850     0.00445     0.01405     0.05329    -0.02392
 PX  C  22   0.02179     0.15443     0.17379     0.10022    -0.19181    -0.02991
 PY  C  22  -0.12657     0.09333    -0.19663    -0.00508    -0.08020    -0.04721
 PZ  C  22   0.05247    -0.03856    -0.04352     0.10374     0.04104     0.24486
  
  S  C  23   0.03783     0.01283    -0.03650    -0.03039     0.04906    -0.00536
 PX  C  23  -0.03884    -0.17517    -0.14477    -0.07893    -0.06426     0.11121
 PY  C  23   0.14648    -0.08072     0.19922    -0.01153    -0.07825     0.06181
 PZ  C  23   0.06416    -0.01692    -0.00855     0.12226     0.01738     0.24584
  
  S  C  24  -0.06616     0.04380    -0.02301     0.04174    -0.02880     0.00461
 PX  C  24   0.08798     0.15168     0.13618     0.06419     0.09903    -0.09116
 PY  C  24  -0.12677    -0.14720    -0.00763     0.01373     0.06282    -0.08636
 PZ  C  24   0.06163    -0.02367    -0.03690     0.14903     0.00615     0.25879
  
  S  H  25   0.05884     0.16658    -0.11712    -0.04944    -0.04450    -0.01493
  
  S  H  26  -0.01210     0.13339     0.16008     0.09249    -0.16260    -0.05757
  
  S  H  27   0.11991    -0.13871     0.07453    -0.05699    -0.07115     0.11259
  
  S  H  28  -0.16150    -0.15340    -0.08580    -0.00795    -0.01745    -0.02617
  
  S  C  29   0.01344     0.03948     0.03879    -0.00313     0.00191    -0.03739
 PX  C  29  -0.15478    -0.11206    -0.01876     0.03998    -0.17708    -0.03733
 PY  C  29   0.04439    -0.06284     0.13965     0.00492    -0.21199    -0.01983
 PZ  C  29   0.08321    -0.01488    -0.07814     0.24326     0.00326     0.27635
  
  S  C  30   0.03124    -0.04145     0.05699    -0.00173     0.02041     0.01588
 PX  C  30   0.12125     0.13229     0.05052    -0.02319    -0.23711     0.08812
 PY  C  30  -0.03799     0.02038    -0.11995    -0.01767    -0.00328     0.07348
 PZ  C  30   0.09392    -0.01961    -0.07264     0.24396     0.01372     0.28465




    ROOT NO.   31          32          33          34          35          36

           -13.07271   -12.92711   -12.06168   -11.84620   -11.74680   -11.38590
  
  
  S  C   1   0.01047    -0.00181     0.01153     0.04342     0.01727     0.00744
 PX  C   1  -0.03508    -0.24010    -0.06472     0.01369     0.06830    -0.13056
 PY  C   1   0.25294    -0.01644     0.24122     0.01975    -0.10929    -0.07495
 PZ  C   1  -0.04179    -0.04914    -0.03017    -0.25467    -0.09018    -0.17829
  
  S  C   2   0.02969     0.00735    -0.02807    -0.04806     0.00567     0.01672
 PX  C   2   0.03307     0.25005     0.02355    -0.03405    -0.05190     0.15582
 PY  C   2  -0.10713     0.03513    -0.21017    -0.09335     0.08405     0.07694
 PZ  C   2   0.00248    -0.08442     0.00797    -0.18936    -0.06272    -0.15456
  
  S  C   3  -0.01411     0.03129     0.01452     0.01856    -0.00162    -0.00387
 PX  C   3   0.07040    -0.17305    -0.07593     0.05944     0.15646    -0.17860
 PY  C   3   0.03498    -0.05867     0.27641     0.10300    -0.17050    -0.06622
 PZ  C   3   0.03787    -0.15883     0.01659    -0.06952     0.01304    -0.07817
  
  S  C   4   0.00057    -0.01944     0.01159    -0.01383    -0.00496     0.02159
 PX  C   4   0.00852     0.17493     0.15490    -0.03631    -0.15797     0.17454
 PY  C   4   0.01667     0.03548    -0.23678    -0.11313     0.16339     0.08888
 PZ  C   4   0.02439    -0.15702     0.02484    -0.05319    -0.04176    -0.06225
  
  S  C   5   0.01469     0.01162    -0.03001     0.01603     0.04367    -0.03133
 PX  C   5   0.00006    -0.18850    -0.12395     0.03185     0.12976    -0.16210
 PY  C   5   0.19849    -0.03524     0.21594     0.05418    -0.08741    -0.07368
 PZ  C   5   0.02087    -0.09872     0.04174    -0.17749    -0.11201    -0.16480
  
  S  C   6   0.00957    -0.01323     0.00319    -0.02174    -0.01070    -0.00200
 PX  C   6   0.05759     0.20701     0.07899     0.02578    -0.04680     0.13545
 PY  C   6  -0.25200     0.02325    -0.24484    -0.04304     0.10095     0.09655
 PZ  C   6  -0.01087    -0.02375     0.01560    -0.24760    -0.12910    -0.16645
  
  S  C   7   0.02380    -0.05659    -0.01596    -0.02856     0.04309     0.00460
 PX  C   7  -0.03937     0.15628     0.06091    -0.08354    -0.13685     0.18063
 PY  C   7   0.15463     0.10179    -0.11352    -0.13447     0.11272     0.09287
 PZ  C   7   0.04835    -0.08398     0.01260     0.07426     0.08848     0.07641
  
  S  C   8  -0.01428     0.05857    -0.02052     0.00345     0.05120    -0.00954
 PX  C   8   0.15030    -0.01064     0.01857     0.07507     0.16419    -0.20884
 PY  C   8  -0.09865    -0.06742     0.10980     0.08493    -0.12220    -0.08499
 PZ  C   8   0.00487    -0.11713     0.04016     0.14815    -0.00929     0.06655
  
  S  C   9  -0.00332    -0.05737    -0.00125    -0.02291    -0.00298    -0.00485
 PX  C   9  -0.14466    -0.04132     0.00335    -0.06997    -0.19332     0.21851
 PY  C   9   0.25782     0.07090     0.01789    -0.17283     0.20209     0.09297
 PZ  C   9   0.02456    -0.05246     0.01686     0.28257     0.07586     0.18449
  
  S  C  10  -0.05053     0.02997    -0.00744    -0.00218     0.00361     0.01141
 PX  C  10   0.11100     0.01015     0.09430     0.04965     0.19885    -0.19663
 PY  C  10  -0.24496    -0.15415     0.03874     0.16458    -0.19677    -0.08487
 PZ  C  10   0.04866    -0.03373     0.01334     0.23600     0.14477     0.17024
  
  S  C  11   0.03353    -0.05933     0.02843    -0.01496     0.06426    -0.00909
 PX  C  11  -0.08533    -0.04596    -0.06311    -0.07401    -0.16107     0.19379
 PY  C  11   0.08117    -0.02240     0.13493    -0.15859     0.13434     0.08608
 PZ  C  11   0.02908     0.07036    -0.00451     0.10194     0.09218     0.07736
  
  S  H  12  -0.08896    -0.03475    -0.13857     0.10623    -0.18957    -0.00400
  
  S  C  13  -0.01663     0.07303     0.00217    -0.01728     0.03319     0.01417
 PX  C  13  -0.05987     0.15199     0.07757     0.09583     0.12369    -0.19276
 PY  C  13  -0.13196    -0.08120    -0.05939     0.12736    -0.12556    -0.11437
 PZ  C  13  -0.01179     0.03767    -0.01594     0.17209     0.00028     0.09374
  
  S  H  14  -0.13559    -0.03034     0.12501     0.06569    -0.17120     0.01296
  
  S  H  15  -0.17836     0.14239    -0.15650    -0.04655     0.04021     0.11680
  
  S  H  16   0.11675     0.07597     0.19522     0.04445    -0.10929     0.00305
  
  S  H  17   0.16797     0.06898     0.24835     0.03803    -0.13939     0.00296
  
  S  H  18  -0.05597    -0.20342    -0.08615     0.00123     0.06418    -0.11244
  
  S  H  19  -0.15376    -0.02927     0.08750     0.05755    -0.17669     0.01978
  
  S  H  20  -0.09694    -0.09309    -0.09242     0.08716    -0.16992    -0.01431
  
  S  C  21   0.02216    -0.00005     0.02345    -0.01607     0.02975    -0.03106
 PX  C  21   0.16577    -0.15305    -0.12845    -0.06090    -0.14156     0.13783
 PY  C  21  -0.11396    -0.09065     0.12124    -0.09044     0.07310     0.07376
 PZ  C  21  -0.00285     0.14067    -0.04588    -0.16162    -0.07607    -0.12871
  
  S  C  22   0.01103     0.01781    -0.00699     0.00828     0.00019     0.01490
 PX  C  22  -0.22394     0.13179     0.08070     0.01645     0.06059    -0.10590
 PY  C  22   0.16863     0.13331    -0.14006     0.07851    -0.08080    -0.10185
 PZ  C  22   0.00728     0.09157    -0.04380    -0.25136    -0.12020    -0.13621
  
  S  C  23   0.02462    -0.00886    -0.00902     0.01552    -0.00083    -0.00611
 PX  C  23   0.19392    -0.18539    -0.06001    -0.08549    -0.07305     0.11689
 PY  C  23  -0.18944    -0.15793     0.15286    -0.06889     0.09110     0.08731
 PZ  C  23  -0.04801     0.10815    -0.01753    -0.25193    -0.11628    -0.14698
  
  S  C  24   0.00530     0.03728     0.01989    -0.04163     0.01543     0.01739
 PX  C  24  -0.17249     0.19233     0.02252     0.09603     0.03959    -0.15280
 PY  C  24   0.13583     0.14871    -0.18949     0.15628    -0.10790    -0.13474
 PZ  C  24  -0.02608     0.10730    -0.02847    -0.17791    -0.10411    -0.09528
  
  S  H  25   0.18368    -0.00405    -0.16333     0.05884    -0.12635    -0.00614
  
  S  H  26  -0.21060     0.13409     0.07758     0.04130     0.06733    -0.09752
  
  S  H  27  -0.05646    -0.22884     0.09864    -0.10844     0.03635     0.13323
  
  S  H  28   0.20097     0.03547    -0.17165     0.07240    -0.11755    -0.02610
  
  S  C  29  -0.02230     0.02848    -0.00232    -0.00410    -0.00412     0.00514
 PX  C  29  -0.16241     0.12610     0.14759     0.05420     0.16270    -0.14186
 PY  C  29   0.03540     0.00492    -0.21226     0.18630    -0.18075    -0.11132
 PZ  C  29  -0.00012     0.15621    -0.03685    -0.02327    -0.00312    -0.02793
  
  S  C  30   0.00772    -0.03264    -0.00635     0.00908     0.00435    -0.00703
 PX  C  30   0.04178    -0.21213    -0.08204    -0.07495    -0.14946     0.18158
 PY  C  30  -0.08390    -0.10241     0.25223    -0.18998     0.19727     0.12283
 PZ  C  30  -0.02018     0.12989    -0.02871    -0.00393    -0.04025    -0.00227




    ROOT NO.   37          38          39          40          41          42

           -10.62231    -9.88454    -9.66324    -8.24441    -8.06142    -6.74068
  
  
  S  C   1  -0.00110     0.03928     0.02145    -0.02180    -0.02949    -0.01978
 PX  C   1  -0.00166    -0.02674    -0.00799    -0.00410     0.01780    -0.00462
 PY  C   1   0.02105    -0.03990    -0.03856     0.03187     0.03054     0.02319
 PZ  C   1   0.06674    -0.30017    -0.24436     0.23902     0.25414     0.19292
  
  S  C   2  -0.00065    -0.01597    -0.01348     0.01611     0.00569     0.01045
 PX  C   2  -0.01220     0.02643     0.02586    -0.01743    -0.01840    -0.01315
 PY  C   2  -0.00663     0.00119    -0.00554     0.01139    -0.00722     0.00517
 PZ  C   2   0.19689    -0.05395    -0.33142     0.37259    -0.03355     0.25341
  
  S  C   3  -0.01044    -0.00707     0.00945    -0.00605     0.01222     0.00425
 PX  C   3  -0.01915    -0.01863    -0.00143     0.00194     0.02159     0.00799
 PY  C   3   0.02771    -0.00006    -0.00608    -0.00287    -0.00008     0.00037
 PZ  C   3   0.24634     0.28652    -0.15930     0.05348    -0.34711    -0.12255
  
  S  C   4   0.00331    -0.00899    -0.00863     0.00009     0.01380    -0.01166
 PX  C   4   0.02380     0.01100    -0.01141     0.00616    -0.00240    -0.00507
 PY  C   4  -0.01729    -0.01562    -0.01387     0.01148     0.02421    -0.00473
 PZ  C   4  -0.21991     0.18077     0.29892    -0.07801    -0.33955     0.13224
  
  S  C   5  -0.01232     0.00824     0.01441    -0.01139    -0.00985    -0.00425
 PX  C   5  -0.01396    -0.01685     0.00060    -0.00096     0.00835     0.00426
 PY  C   5   0.02273    -0.00772    -0.02688     0.02480     0.00977     0.01580
 PZ  C   5  -0.21469    -0.18426     0.26356    -0.36416     0.01025    -0.24560
  
  S  C   6  -0.00400    -0.02294    -0.00246    -0.00472     0.01848    -0.00537
 PX  C   6   0.02337     0.06490    -0.00855     0.03363    -0.04089     0.02870
 PY  C   6  -0.01061     0.03239     0.01821    -0.00709    -0.02319    -0.00362
 PZ  C   6  -0.11368    -0.35923     0.05401    -0.21376     0.27798    -0.19996
  
  S  C   7   0.00812     0.00421    -0.00952    -0.00285    -0.00090    -0.01507
 PX  C   7  -0.01234    -0.01084     0.01269     0.00744    -0.00528     0.01456
 PY  C   7  -0.04244    -0.01726     0.00743     0.01247    -0.00367     0.01228
 PZ  C   7   0.36025     0.25138    -0.15362    -0.18647     0.01317    -0.35543
  
  S  C   8  -0.02073     0.01301     0.00898     0.01113    -0.00137     0.01496
 PX  C   8  -0.03140     0.00506     0.00431     0.00380     0.00568     0.00174
 PY  C   8   0.05390    -0.01570    -0.02324    -0.02444     0.00131    -0.03275
 PZ  C   8  -0.33190     0.14874     0.26358     0.19482    -0.00858     0.36834
  
  S  C   9   0.01299    -0.00743     0.00111    -0.01317    -0.01891    -0.00235
 PX  C   9   0.02983    -0.00553    -0.00105     0.00099    -0.00210     0.00189
 PY  C   9  -0.04438    -0.00264    -0.00104     0.00933    -0.00565    -0.00103
 PZ  C   9  -0.26685     0.00651     0.00442     0.24375     0.34620     0.00589
  
  S  C  10   0.00322     0.00368    -0.00077    -0.00337     0.01065    -0.00195
 PX  C  10  -0.03454     0.01788    -0.00706     0.00873    -0.00953    -0.00658
 PY  C  10   0.04865     0.00381    -0.00276    -0.00909     0.00603    -0.00257
 PZ  C  10   0.26268     0.01457    -0.01161    -0.20981     0.39639    -0.01203
  
  S  C  11   0.01051    -0.01664     0.00919    -0.00834    -0.00363     0.01869
 PX  C  11   0.03038    -0.02315     0.00766    -0.00716    -0.00010     0.00667
 PY  C  11  -0.03534     0.00452    -0.00386     0.01444    -0.00757    -0.01329
 PZ  C  11   0.31453    -0.26504     0.14712    -0.24613     0.03204     0.37662
  
  S  H  12   0.02815    -0.00180    -0.00228    -0.00132     0.00236    -0.00860
  
  S  C  13  -0.00908     0.00236     0.00026     0.00410     0.00352     0.00390
 PX  C  13  -0.00959     0.00783    -0.00462    -0.00619    -0.00050    -0.00173
 PY  C  13   0.04781     0.01447     0.01824    -0.02248    -0.00006     0.02114
 PZ  C  13  -0.31381    -0.15776    -0.26042     0.22036    -0.03722    -0.37318
  
  S  H  14   0.02321     0.00241     0.00348    -0.00137    -0.00234     0.00781
  
  S  H  15  -0.00654     0.01639     0.00651     0.00730    -0.00511     0.01023
  
  S  H  16   0.00774     0.00304     0.00188    -0.00163    -0.00195     0.00119
  
  S  H  17   0.02337     0.00206    -0.01792     0.01663     0.00042     0.01029
  
  S  H  18  -0.00729    -0.02076    -0.00199    -0.00093     0.00582     0.00258
  
  S  H  19   0.04170    -0.00197    -0.00651    -0.01082    -0.00282    -0.00717
  
  S  H  20   0.03044     0.00339     0.00332    -0.00632    -0.00024     0.00079
  
  S  C  21   0.01628    -0.00218     0.03944     0.03965    -0.00461    -0.02790
 PX  C  21   0.02127    -0.01744     0.01652     0.01050    -0.00561    -0.00701
 PY  C  21   0.00890    -0.01773     0.01849     0.01678    -0.00619    -0.01079
 PZ  C  21   0.19750     0.00709     0.37848     0.33777    -0.01253    -0.22260
  
  S  C  22  -0.00658    -0.01500    -0.01918    -0.02110    -0.01328     0.01802
 PX  C  22   0.00895     0.04042     0.03526     0.03368     0.02878    -0.02587
 PY  C  22  -0.00222     0.03601     0.00552     0.00797     0.01791    -0.00887
 PZ  C  22   0.08913     0.27006     0.26513     0.24724     0.23430    -0.19431
  
  S  C  23   0.00320    -0.01116     0.00353     0.00645    -0.00720    -0.00788
 PX  C  23  -0.00622     0.01207    -0.01180    -0.01390     0.01077     0.01299
 PY  C  23   0.00914    -0.03708     0.01129     0.01362    -0.01766    -0.00934
 PZ  C  23  -0.10032     0.38814    -0.11234    -0.19402     0.24557     0.18298
  
  S  C  24  -0.01646     0.01451    -0.01583    -0.01142     0.00264     0.00778
 PX  C  24  -0.00433     0.01826    -0.00825    -0.01289     0.00250     0.00763
 PY  C  24   0.00470     0.01151    -0.00631    -0.00995     0.00207     0.00510
 PZ  C  24  -0.19500     0.21854    -0.31763    -0.32211     0.00230     0.21598
  
  S  H  25  -0.00307     0.00831    -0.02048    -0.02261     0.00295     0.01650
  
  S  H  26   0.00016     0.02110     0.01116     0.01156     0.01344    -0.00945
  
  S  H  27   0.00338    -0.01673     0.00198    -0.00005    -0.00227     0.00398
  
  S  H  28   0.00650     0.00325     0.00046     0.00011     0.00246    -0.00053
  
  S  C  29  -0.00972     0.01644    -0.00540    -0.00051     0.01236    -0.00409
 PX  C  29  -0.01803     0.01593    -0.00950    -0.00326     0.00850     0.00123
 PY  C  29   0.02558     0.00674    -0.00165    -0.01123     0.00455     0.00796
 PZ  C  29   0.21724    -0.33517     0.18067    -0.00891    -0.31228     0.15578
  
  S  C  30   0.00277    -0.00716     0.00240     0.00063    -0.00149    -0.00105
 PX  C  30   0.01871    -0.01299     0.00555     0.00385    -0.00347     0.00006
 PY  C  30  -0.01797    -0.00613     0.00766     0.01415     0.00444    -0.00630
 PZ  C  30  -0.19768    -0.20502    -0.29838    -0.04737    -0.34436    -0.14734




    ROOT NO.   43          44          45          46          47          48

            -1.03431     0.18925     0.24791     1.22093     1.38866     1.81070
  
  
  S  C   1   0.02412     0.04159     0.02297    -0.05161    -0.03333     0.01579
 PX  C   1  -0.01140    -0.00504    -0.01104     0.00906     0.00169    -0.00767
 PY  C   1  -0.01997    -0.03460    -0.01383     0.03214     0.03002    -0.00794
 PZ  C   1  -0.19737    -0.31218    -0.15221     0.30209     0.23332    -0.09491
  
  S  C   2   0.00107     0.00314    -0.00449     0.00938    -0.00522     0.00125
 PX  C   2   0.00194     0.01599    -0.00705    -0.00257    -0.01709    -0.00077
 PY  C   2   0.00967     0.01249     0.00523    -0.00738    -0.00867     0.00529
 PZ  C   2   0.24803     0.08257     0.34922    -0.34823     0.01764     0.21559
  
  S  C   3   0.00045    -0.02378     0.01766    -0.01089     0.02192    -0.00044
 PX  C   3  -0.00381    -0.01048     0.00575    -0.00294     0.00362    -0.00569
 PY  C   3  -0.00030    -0.01031     0.00065     0.00716     0.00941    -0.00093
 PZ  C   3   0.12533     0.32427    -0.15291     0.11438    -0.31962    -0.25470
  
  S  C   4  -0.00597     0.02709    -0.01447    -0.00200    -0.02878    -0.00586
 PX  C   4   0.00697     0.00908     0.00642    -0.00687     0.00314     0.00896
 PY  C   4  -0.00378     0.01391     0.00478    -0.01998     0.00071     0.01438
 PZ  C   4   0.13818    -0.35102     0.03852     0.33078     0.12085    -0.22127
  
  S  C   5   0.01327    -0.00093     0.02127    -0.01658     0.01772     0.01626
 PX  C   5  -0.00939    -0.00846    -0.01074     0.01046    -0.00258    -0.00700
 PY  C   5  -0.01794    -0.00666    -0.02224     0.01554    -0.01290    -0.01270
 PZ  C   5   0.23775     0.08665     0.33378    -0.23660     0.23152     0.20614
  
  S  C   6  -0.01726     0.00155    -0.02572     0.01780    -0.02064    -0.01763
 PX  C   6   0.02275    -0.03112     0.03152     0.00843     0.04950     0.00929
 PY  C   6   0.01518     0.00826     0.01439    -0.01415    -0.00347     0.00588
 PZ  C   6  -0.19698     0.21022    -0.27531    -0.01090    -0.36443    -0.09364
  
  S  C   7  -0.01608     0.00371    -0.01906     0.00679     0.00939     0.04122
 PX  C   7   0.01532    -0.00127     0.00994     0.00118    -0.00449     0.00382
 PY  C   7   0.01401     0.00310     0.00361     0.00848    -0.01106     0.00070
 PZ  C   7  -0.35834    -0.05688    -0.19164    -0.09910     0.27058     0.34452
  
  S  C   8  -0.01275    -0.00182     0.00277    -0.01108     0.01210     0.00007
 PX  C   8  -0.00867     0.01430    -0.00095    -0.00312    -0.00557    -0.01306
 PY  C   8   0.02427     0.01036     0.00895     0.01723    -0.00223    -0.02392
 PZ  C   8  -0.36400    -0.04242    -0.20493    -0.26877    -0.10136     0.33802
  
  S  C   9   0.00326    -0.02817    -0.01696     0.00711    -0.00403     0.04576
 PX  C   9  -0.00107    -0.00186    -0.00356    -0.00252     0.00118     0.01502
 PY  C   9  -0.00054    -0.00878     0.00184    -0.00385     0.00097    -0.00910
 PZ  C   9   0.01192     0.40829     0.13163    -0.00210     0.01816    -0.28410
  
  S  C  10   0.00296     0.00268     0.02133    -0.01371     0.00152    -0.06347
 PX  C  10  -0.00864     0.00036    -0.01105    -0.00550     0.00860     0.00071
 PY  C  10  -0.00332     0.00710    -0.00026     0.00097     0.00376    -0.00655
 PZ  C  10   0.01110    -0.30915     0.33455    -0.00789    -0.01974    -0.25765
  
  S  C  11   0.01229     0.00420    -0.01814     0.01994    -0.01385     0.05743
 PX  C  11   0.00780     0.00365     0.00476     0.00523    -0.00309    -0.00481
 PY  C  11  -0.01732     0.00688     0.01048    -0.00038     0.01675    -0.01034
 PZ  C  11   0.37355    -0.03817    -0.22497     0.11839    -0.27883     0.30912
  
  S  H  12  -0.01039     0.00019     0.01285    -0.00829     0.01180    -0.03249
  
  S  C  13  -0.00034     0.00940     0.00570    -0.00571    -0.00082    -0.02237
 PX  C  13   0.00057    -0.00501    -0.00197     0.00245    -0.00141     0.00585
 PY  C  13  -0.02125    -0.00475     0.00795    -0.01358    -0.00639    -0.00779
 PZ  C  13   0.35917    -0.03509    -0.20219     0.28652     0.09916     0.32157
  
  S  H  14   0.00933    -0.00110     0.00897     0.00180    -0.00813    -0.02580
  
  S  H  15  -0.00945    -0.03088    -0.00950     0.03696     0.03268    -0.00919
  
  S  H  16  -0.00080    -0.00948     0.00198     0.00264     0.01051    -0.00137
  
  S  H  17  -0.00637    -0.00772    -0.00987     0.01589    -0.00030    -0.01032
  
  S  H  18   0.00611    -0.00964     0.01433    -0.00391     0.02395     0.01083
  
  S  H  19   0.00668     0.00100    -0.00090     0.00672    -0.00759    -0.00010
  
  S  H  20  -0.00141    -0.00308    -0.00113     0.00733     0.00209     0.01712
  
  S  C  21  -0.02944     0.00775     0.04490     0.05375    -0.02006     0.04930
 PX  C  21  -0.00961    -0.00262     0.01871     0.01070    -0.01237     0.00201
 PY  C  21  -0.00547    -0.00426     0.00672    -0.00083    -0.00797    -0.00013
 PZ  C  21  -0.22964     0.09285     0.33962     0.35476    -0.05555     0.19778
  
  S  C  22  -0.00673     0.02224    -0.00082     0.00556     0.03104    -0.01506
 PX  C  22   0.01697    -0.02753    -0.01202    -0.02211    -0.02358    -0.00310
 PY  C  22   0.00352    -0.00580     0.00271     0.00692    -0.00749     0.01066
 PZ  C  22   0.21749    -0.29247    -0.19586    -0.31409    -0.22188    -0.10431
  
  S  C  23  -0.00156    -0.01742     0.00094    -0.01514    -0.02208    -0.00073
 PX  C  23   0.00584     0.00960    -0.00494     0.00521     0.00884     0.00159
 PY  C  23  -0.01198    -0.00418     0.01433     0.00299    -0.01474     0.00139
 PZ  C  23   0.18360     0.17874    -0.24867    -0.00497     0.40560    -0.07234
  
  S  C  24  -0.01113     0.00752     0.02040     0.01968    -0.01477     0.00913
 PX  C  24  -0.00582     0.00361     0.00647     0.00705    -0.00182     0.00496
 PY  C  24  -0.00005     0.00053     0.00068     0.00285    -0.00271     0.00452
 PZ  C  24  -0.22695     0.08035     0.32263     0.24017    -0.27882     0.17259
  
  S  H  25   0.01568    -0.00254    -0.02848    -0.03365     0.01568    -0.03010
  
  S  H  26   0.00800    -0.01174    -0.00453    -0.00409    -0.01404     0.00910
  
  S  H  27   0.00189     0.01243    -0.00324     0.00891     0.01913    -0.00048
  
  S  H  28   0.00877    -0.00184    -0.01514    -0.01212     0.01441    -0.00679
  
  S  C  29   0.00925    -0.01760    -0.00343    -0.02510    -0.00879    -0.03401
 PX  C  29   0.01402    -0.00748    -0.01928    -0.01570    -0.00095    -0.00312
 PY  C  29   0.00476    -0.00106    -0.00480     0.00436    -0.00819     0.01361
 PZ  C  29  -0.15338     0.29347    -0.10306    -0.12285     0.37366    -0.22700
  
  S  C  30   0.00310     0.00056    -0.00616     0.00139     0.00529     0.00974
 PX  C  30  -0.00020     0.00098    -0.00090    -0.00284     0.00399    -0.00288
 PY  C  30   0.00656     0.00133    -0.00533    -0.00303     0.00586    -0.00694
 PZ  C  30  -0.15011    -0.33975     0.03423    -0.34308    -0.14622    -0.20363




    ROOT NO.   49          50          51          52          53          54

             2.35334     2.43994     2.83147     3.09162     3.31015     3.36192
  
  
  S  C   1   0.08339     0.12322    -0.15946    -0.07113    -0.12952    -0.14027
 PX  C   1   0.00270     0.03848    -0.03397    -0.01097    -0.00474    -0.08317
 PY  C   1  -0.04182     0.01488    -0.02254     0.04370    -0.03179     0.04458
 PZ  C   1  -0.30718     0.02660    -0.03932     0.19367    -0.06046    -0.11228
  
  S  C   2  -0.05183    -0.20394     0.23714     0.06221     0.14338     0.25567
 PX  C   2   0.00513    -0.03188     0.01617    -0.00318    -0.01977     0.01313
 PY  C   2  -0.00624    -0.05855     0.04756     0.00323     0.00660     0.02645
 PZ  C   2   0.22889     0.00236     0.00931    -0.22733     0.04510     0.06954
  
  S  C   3   0.06218     0.28656    -0.28255    -0.04132    -0.09756    -0.18074
 PX  C   3  -0.00048    -0.01286     0.08107     0.00133     0.10990    -0.05198
 PY  C   3  -0.00805     0.03103    -0.02151     0.03446     0.00204     0.14508
 PZ  C   3  -0.06337    -0.00838    -0.00867     0.29734    -0.06400    -0.09339
  
  S  C   4  -0.02483    -0.27971     0.28660    -0.05628     0.13288    -0.19765
 PX  C   4  -0.01668    -0.03059    -0.00944     0.02543    -0.05953     0.06864
 PY  C   4   0.01061     0.02803    -0.06822    -0.02349    -0.06010    -0.13102
 PZ  C   4   0.09230     0.00209    -0.02162    -0.30700     0.04045     0.08390
  
  S  C   5   0.00770     0.17865    -0.21227     0.07059    -0.15787     0.22118
 PX  C   5   0.01349     0.06292    -0.05114     0.00554    -0.00261     0.05017
 PY  C   5   0.01402    -0.00052     0.00735    -0.01052     0.01992     0.01748
 PZ  C   5  -0.26949    -0.02009     0.02941     0.23843    -0.01856    -0.09607
  
  S  C   6   0.00218    -0.11377     0.15454    -0.04130     0.15402    -0.08833
 PX  C   6  -0.05637    -0.03433     0.03613     0.03132     0.01516    -0.01742
 PY  C   6   0.01370    -0.01816     0.01268    -0.03744     0.00208    -0.10623
 PZ  C   6   0.34448     0.01400    -0.01541    -0.21367     0.02084     0.09682
  
  S  C   7  -0.04944    -0.24509     0.09455    -0.01549    -0.15865     0.21801
 PX  C   7   0.02068     0.01931    -0.10375    -0.02331    -0.11846    -0.00673
 PY  C   7   0.00415    -0.05304    -0.03703    -0.00627    -0.09719     0.02590
 PZ  C   7  -0.14297     0.06137    -0.02912    -0.16179     0.04381     0.02165
  
  S  C   8   0.00526     0.24514    -0.12119     0.09515     0.08393     0.23571
 PX  C   8  -0.01064     0.02500     0.08414     0.02515     0.13566     0.02167
 PY  C   8  -0.01342    -0.05218     0.06852    -0.01732     0.04865    -0.02329
 PZ  C   8   0.13345    -0.01483     0.06069     0.15527    -0.00132    -0.06478
  
  S  C   9   0.02026    -0.26799    -0.04789    -0.12391    -0.32716    -0.20251
 PX  C   9   0.00051    -0.01632    -0.08350     0.00747    -0.06671     0.05785
 PY  C   9   0.01953     0.02790    -0.02104    -0.00637     0.09349    -0.13900
 PZ  C   9  -0.33635    -0.01588    -0.07669    -0.03479    -0.04790    -0.00459
  
  S  C  10   0.02579     0.27380     0.06705     0.04756     0.36862    -0.18469
 PX  C  10  -0.00521    -0.00225     0.07549    -0.03266    -0.02932    -0.08526
 PY  C  10  -0.02313     0.02250     0.04306     0.03495     0.06783     0.12486
 PZ  C  10   0.33213    -0.06477     0.04570     0.02583    -0.01886     0.01558
  
  S  C  11  -0.02266    -0.23326    -0.17435     0.02293    -0.15486     0.23962
 PX  C  11   0.00954     0.04035    -0.04720     0.02585     0.13884    -0.03252
 PY  C  11   0.01188    -0.03880    -0.06071     0.00303     0.04115     0.01602
 PZ  C  11  -0.14562     0.05013    -0.00193     0.13682     0.00073    -0.05137
  
  S  H  12   0.01222     0.12218     0.10176    -0.00942     0.09799    -0.10662
  
  S  C  13  -0.01900     0.22742     0.15034     0.09272     0.13236     0.26580
 PX  C  13   0.00126     0.00601     0.07850    -0.02776    -0.11226    -0.00072
 PY  C  13  -0.00367    -0.05102     0.00311    -0.01806    -0.07271    -0.03004
 PZ  C  13   0.15729     0.03918     0.04276    -0.13899     0.04569     0.01045
  
  S  H  14   0.02366     0.13249    -0.06104     0.02724     0.10017    -0.08605
  
  S  H  15  -0.07188    -0.07980     0.10008     0.06283     0.07575     0.09659
  
  S  H  16   0.01897     0.11722    -0.15142    -0.02861    -0.10713    -0.14170
  
  S  H  17  -0.01762    -0.09933     0.12784    -0.02856     0.10073    -0.11263
  
  S  H  18  -0.01731     0.07440    -0.10049     0.04032    -0.10279     0.05970
  
  S  H  19  -0.00664    -0.13537     0.07423    -0.04294    -0.05647    -0.09634
  
  S  H  20   0.00990    -0.12546    -0.09268    -0.05337    -0.09864    -0.12699
  
  S  C  21   0.01793    -0.16242    -0.24771     0.07446     0.19643     0.15399
 PX  C  21   0.00554     0.06084     0.05541     0.00645     0.03302    -0.04167
 PY  C  21  -0.00645    -0.00512    -0.02102    -0.00170     0.04745    -0.00035
 PZ  C  21   0.20386     0.00853     0.06481     0.23340    -0.06503    -0.07372
  
  S  C  22   0.02221     0.10980     0.20904    -0.03069    -0.26379    -0.09542
 PX  C  22  -0.02362    -0.02478    -0.04149    -0.01441     0.03312    -0.00412
 PY  C  22   0.00204    -0.01561    -0.00949     0.01783    -0.03385     0.07126
 PZ  C  22  -0.29928     0.04261    -0.01005    -0.23840     0.00219     0.03437
  
  S  C  23  -0.01866    -0.10110    -0.19060    -0.00635     0.26187    -0.08548
 PX  C  23   0.00139     0.02127     0.01470     0.01000     0.01920     0.06598
 PY  C  23  -0.01137     0.02085     0.03399    -0.02091    -0.03947    -0.03849
 PZ  C  23   0.32909    -0.06398     0.00723     0.25583    -0.01588    -0.03093
  
  S  C  24  -0.02044     0.14582     0.20913    -0.01132    -0.18400     0.17550
 PX  C  24   0.00252    -0.02650    -0.01184    -0.01019    -0.04630    -0.03640
 PY  C  24   0.00013    -0.04833    -0.05131    -0.01130     0.00726    -0.04132
 PZ  C  24  -0.24817     0.05309    -0.02197    -0.26905     0.05271     0.00798
  
  S  H  25  -0.01329     0.08934     0.14884    -0.04542    -0.13724    -0.06705
  
  S  H  26  -0.01109    -0.06932    -0.12722     0.02406     0.15633     0.07439
  
  S  H  27   0.01692     0.06227     0.11718     0.01364    -0.16283     0.06544
  
  S  H  28   0.01618    -0.08082    -0.12685     0.02187     0.12383    -0.08095
  
  S  C  29  -0.00632     0.23737     0.29183    -0.04233    -0.08702    -0.14938
 PX  C  29  -0.01327    -0.03021     0.00760    -0.02749    -0.08054    -0.03773
 PY  C  29  -0.01336     0.00622     0.04617     0.01558    -0.08035     0.13600
 PZ  C  29  -0.03580     0.01179     0.00057    -0.30338     0.04248     0.05423
  
  S  C  30   0.01572    -0.22045    -0.26304    -0.02000     0.09888    -0.18557
 PX  C  30   0.00096     0.00749    -0.04985     0.04105     0.09285     0.08053
 PY  C  30   0.00513     0.03317     0.03156    -0.01278     0.02594    -0.09686
 PZ  C  30   0.04559    -0.05533    -0.01237     0.30989    -0.06069    -0.03183




    ROOT NO.   55          56          57          58          59          60

             3.54861     3.70891     3.79611     3.84472     4.21794     4.27461
  
  
  S  C   1   0.03764    -0.20999     0.38197     0.03391    -0.06666    -0.01594
 PX  C   1   0.01741     0.01379    -0.03515    -0.13033    -0.07049    -0.02043
 PY  C   1  -0.03797    -0.02578     0.03801     0.10106     0.03720    -0.00855
 PZ  C   1  -0.10040    -0.05078     0.09266    -0.02656    -0.01475     0.00703
  
  S  C   2  -0.05065     0.11486    -0.14959     0.24681     0.18949     0.06173
 PX  C   2  -0.00131    -0.08301     0.17321     0.08786    -0.00746    -0.00970
 PY  C   2   0.00242    -0.03609     0.08172     0.01597    -0.06337    -0.04022
 PZ  C   2   0.14730     0.01189    -0.01965     0.02095     0.00323    -0.00364
  
  S  C   3   0.02244     0.07097    -0.20323    -0.23108     0.04068     0.10156
 PX  C   3   0.00330     0.04912     0.00878     0.02687     0.13572     0.12436
 PY  C   3  -0.03252     0.07458    -0.15804     0.09612     0.05449    -0.01571
 PZ  C   3  -0.26710     0.00002    -0.00748    -0.06424    -0.01357     0.00751
  
  S  C   4   0.05557    -0.09976     0.29134    -0.02877     0.01415     0.05849
 PX  C   4  -0.04397    -0.05063     0.05071     0.18140     0.12632     0.05750
 PY  C   4   0.00351    -0.00801    -0.04286    -0.08613     0.08944     0.12510
 PZ  C   4   0.26875    -0.00711     0.00734     0.05507     0.02259     0.00675
  
  S  C   5  -0.09572    -0.03318    -0.02859     0.32473     0.21672     0.08459
 PX  C   5   0.00341     0.06658    -0.14378    -0.07867    -0.05501    -0.02220
 PY  C   5   0.00641     0.04978    -0.09960    -0.01965     0.04360     0.03709
 PZ  C   5  -0.14655     0.00502    -0.00063    -0.06155    -0.01838     0.00131
  
  S  C   6   0.06161     0.17731    -0.29615    -0.30431    -0.07121     0.01848
 PX  C   6  -0.01456     0.00557    -0.00184    -0.01240    -0.01771    -0.02209
 PY  C   6   0.03683    -0.05527     0.12286    -0.08668    -0.08784    -0.03116
 PZ  C   6   0.10797    -0.00028    -0.00464     0.05295     0.00561    -0.01260
  
  S  C   7   0.00301    -0.14015     0.03218     0.07438    -0.26430    -0.29238
 PX  C   7   0.00421    -0.01509    -0.08749    -0.10383    -0.04627     0.00622
 PY  C   7  -0.01391    -0.02452    -0.05086    -0.05358     0.02327     0.06871
 PZ  C   7   0.25666     0.01225    -0.01710     0.03483     0.03970     0.02045
  
  S  C   8  -0.02707     0.12908    -0.09563     0.00308    -0.26208    -0.29189
 PX  C   8   0.02549     0.00894     0.14078    -0.01783    -0.02776     0.03711
 PY  C   8   0.03145    -0.01526     0.06954    -0.01076    -0.04748    -0.03749
 PZ  C   8  -0.25292    -0.00199     0.02274    -0.04100    -0.00617     0.01488
  
  S  C   9  -0.02992    -0.11043    -0.19675    -0.01515     0.16746     0.01236
 PX  C   9  -0.02145     0.04007    -0.07916     0.02052    -0.08762    -0.14659
 PY  C   9  -0.01903     0.08197     0.01950     0.07704     0.10457    -0.09645
 PZ  C   9   0.33957    -0.01104    -0.04271     0.04356     0.04119    -0.01231
  
  S  C  10   0.00746     0.13030     0.15042     0.09058     0.12042    -0.03326
 PX  C  10  -0.01209    -0.07055    -0.06333     0.08086     0.04222    -0.16830
 PY  C  10   0.01804     0.00264     0.06934     0.02873    -0.14465    -0.08250
 PZ  C  10  -0.33409    -0.00506     0.01846    -0.04859    -0.03621     0.00649
  
  S  C  11   0.02705     0.09814     0.07542    -0.15164    -0.14383     0.31409
 PX  C  11   0.01371     0.10166     0.10917    -0.01563     0.02930     0.01546
 PY  C  11  -0.01724     0.06065     0.05027    -0.01925     0.04610    -0.06285
 PZ  C  11   0.24649    -0.00740    -0.02268     0.04735     0.02702    -0.04172
  
  S  H  12  -0.02469    -0.07875    -0.04187     0.07959     0.11696    -0.28967
  
  S  C  13   0.04361    -0.13315     0.10498    -0.12521    -0.15277     0.29027
 PX  C  13  -0.00054    -0.13498    -0.08020    -0.06949     0.07195    -0.00644
 PY  C  13   0.01526    -0.04098    -0.03142    -0.03406     0.01696     0.06303
 PZ  C  13  -0.26329     0.00345     0.01968    -0.02435    -0.02119     0.01756
  
  S  H  14  -0.01227     0.10710    -0.02819    -0.03853     0.21040     0.26530
  
  S  H  15  -0.03526     0.13290    -0.24790    -0.02124     0.01901    -0.01817
  
  S  H  16   0.02763    -0.08152     0.09461    -0.17536    -0.18264    -0.08650
  
  S  H  17   0.05686     0.02141     0.02482    -0.21858    -0.20621    -0.11016
  
  S  H  18  -0.04750    -0.11722     0.19551     0.19479     0.02006    -0.04100
  
  S  H  19   0.01075    -0.09175     0.07477     0.01603     0.20020     0.25851
  
  S  H  20  -0.03411     0.08911    -0.07077     0.06206     0.11832    -0.27289
  
  S  C  21   0.00994    -0.07185     0.10842    -0.22823     0.25795    -0.16994
 PX  C  21   0.00504    -0.17699    -0.09775     0.00787     0.04492    -0.03037
 PY  C  21  -0.00901    -0.09321    -0.04837     0.01097    -0.03488     0.03607
 PZ  C  21   0.16197     0.00450    -0.03955     0.07125    -0.05119     0.02905
  
  S  C  22   0.02376     0.35895     0.09184     0.12368    -0.09911     0.02524
 PX  C  22  -0.01267    -0.00356    -0.00285     0.01055     0.00170    -0.02009
 PY  C  22   0.01568     0.08713     0.09793    -0.11059     0.12430    -0.07599
 PZ  C  22  -0.12467     0.05670     0.03459    -0.01401    -0.00660     0.00662
  
  S  C  23  -0.04196    -0.32021    -0.19974     0.12768    -0.12316     0.06271
 PX  C  23  -0.00185    -0.10478    -0.00451    -0.10028     0.10977    -0.06382
 PY  C  23  -0.00544     0.05886    -0.00446     0.05892    -0.05115     0.01222
 PZ  C  23   0.13377    -0.03816    -0.02667     0.01436     0.00472    -0.00746
  
  S  C  24   0.01362    -0.00487     0.10014    -0.27127     0.28337    -0.16240
 PX  C  24   0.00417     0.16586     0.06518     0.03296    -0.01117    -0.00228
 PY  C  24  -0.00497     0.10995     0.05054     0.01683     0.04311    -0.04075
 PZ  C  24  -0.17275     0.01561     0.00497     0.01614    -0.03929     0.02701
  
  S  H  25  -0.00663     0.05061    -0.06466     0.14046    -0.21818     0.17153
  
  S  H  26  -0.01078    -0.22368    -0.05279    -0.08608     0.04321     0.01841
  
  S  H  27   0.03236     0.20035     0.12927    -0.08319     0.05293    -0.00470
  
  S  H  28  -0.00162    -0.00886    -0.06087     0.16972    -0.23082     0.15745
  
  S  C  29  -0.00239    -0.27778    -0.23218     0.12306    -0.02772    -0.02861
 PX  C  29  -0.00506     0.10532    -0.00839     0.09308    -0.13400     0.10056
 PY  C  29   0.02013    -0.09197    -0.00584    -0.11657    -0.01975     0.12175
 PZ  C  29  -0.28434    -0.00847     0.01727    -0.04182    -0.00487     0.01115
  
  S  C  30  -0.02231     0.32836     0.08732     0.18860    -0.05495    -0.06200
 PX  C  30   0.00976     0.01390     0.05448    -0.00858    -0.10411     0.12659
 PY  C  30  -0.01001    -0.08828    -0.10965     0.12883    -0.10188     0.03439
 PZ  C  30   0.29004    -0.00826    -0.02063     0.02190     0.01893    -0.01628




    ROOT NO.   61          62          63          64          65          66

             5.25004     5.40412     5.49510     5.66993     6.13825     6.45551
  
  
  S  C   1   0.12974    -0.28377     0.01294    -0.10735    -0.05803    -0.02328
 PX  C   1  -0.12971     0.08172    -0.00654     0.14107     0.10655     0.05451
 PY  C   1   0.01193     0.29143    -0.01126     0.00250     0.00772     0.00480
 PZ  C   1   0.02603    -0.12625     0.00539    -0.02452    -0.01518    -0.00736
  
  S  C   2   0.16207    -0.07890     0.00878    -0.16379    -0.11858    -0.06700
 PX  C   2   0.11504    -0.21142     0.01117    -0.09631    -0.05529    -0.02805
 PY  C   2  -0.05782     0.07861    -0.00678     0.13483     0.18788     0.16384
 PZ  C   2  -0.00710     0.02426    -0.00121     0.00831     0.00605     0.00354
  
  S  C   3  -0.04154     0.04247    -0.00549    -0.06584    -0.14738    -0.13425
 PX  C   3   0.15750     0.03257    -0.00404    -0.06627     0.06893     0.11385
 PY  C   3   0.05463    -0.05190     0.00895    -0.11260    -0.15302    -0.14135
 PZ  C   3  -0.00265    -0.00742     0.00010    -0.00870    -0.01484    -0.01325
  
  S  C   4   0.03052     0.03169    -0.00604     0.06916     0.14475     0.13669
 PX  C   4  -0.13290    -0.03884     0.00134     0.12647     0.08481     0.04554
 PY  C   4  -0.10772     0.06925    -0.00896    -0.00921    -0.14563    -0.16294
 PZ  C   4  -0.00403     0.01186    -0.00104     0.00679     0.00529     0.00327
  
  S  C   5  -0.17175    -0.09559     0.00350     0.15716     0.10331     0.05054
 PX  C   5   0.00597    -0.02404     0.00069    -0.07110    -0.12191    -0.10965
 PY  C   5  -0.13002    -0.24424     0.00872     0.14525     0.13953     0.10260
 PZ  C   5   0.00191    -0.03531     0.00134    -0.00329    -0.00264    -0.00166
  
  S  C   6  -0.12101    -0.31022     0.00969     0.09106     0.05018     0.02084
 PX  C   6   0.06466     0.25234    -0.00901    -0.06716    -0.05139    -0.02482
 PY  C   6   0.11921    -0.07388     0.00438    -0.11691    -0.07881    -0.03704
 PZ  C   6   0.01246     0.09544    -0.00346    -0.01135    -0.00857    -0.00416
  
  S  C   7  -0.22824    -0.05268     0.00688     0.07940    -0.08566    -0.13234
 PX  C   7  -0.06727    -0.02678    -0.00476    -0.03306    -0.11341    -0.11644
 PY  C   7   0.08260     0.01403    -0.01297    -0.10562     0.05836     0.27311
 PZ  C   7   0.01876     0.00751    -0.00074    -0.01049     0.00636     0.01961
  
  S  C   8   0.22894    -0.05990     0.00895    -0.06476     0.09748     0.13667
 PX  C   8  -0.03657    -0.00215    -0.01732     0.09625     0.01268    -0.10328
 PY  C   8   0.08767    -0.03408     0.00436    -0.01252     0.12903     0.21597
 PZ  C   8  -0.01003    -0.00152    -0.00014     0.00404     0.00055     0.00245
  
  S  C   9   0.01061     0.02424     0.02543    -0.13000    -0.02883     0.12748
 PX  C   9   0.15871    -0.02597     0.00242    -0.03793     0.07572     0.10878
 PY  C   9   0.08399     0.00820     0.02276     0.13044     0.08202    -0.19537
 PZ  C   9   0.00744     0.00286     0.00335    -0.00970     0.00046     0.00972
  
  S  C  10  -0.00126     0.02135     0.02039     0.14005     0.03128    -0.19125
 PX  C  10  -0.15059    -0.00137     0.02695    -0.06974    -0.09938     0.07411
[...]
  S   H   18   -0.0707   -0.0339   -0.0150    0.0092   -0.0841    0.3244   -0.0003    0.1201
  S   H   19   -0.1367   -0.2491    0.1591   -0.2268    0.2015    0.0576   -0.0097    0.0329
  S   H   20    0.2075   -0.2070    0.2837   -0.1459   -0.0556   -0.0095    0.0639    0.0198
  S   C   21    0.1210   -0.0389   -0.0209    0.0047    0.0019    0.0008    0.0671    0.0683
  Px  C   21    0.1241   -0.0742   -0.3040   -0.1978    0.0555    0.0003   -0.0846   -0.1308
  Py  C   21   -0.1627    0.0740    0.1045    0.0630   -0.0226    0.0029    0.2683    0.1850
  Pz  C   21   -0.0334    0.0126    0.0172    0.0079   -0.0027   -0.0002   -0.0109   -0.0079
  S   C   22    0.0742   -0.0185    0.0612    0.0304   -0.0093   -0.0012   -0.1015   -0.0109
  Px  C   22    0.0839   -0.0254    0.0696    0.0327   -0.0138    0.0063    0.4867    0.0233
  Py  C   22    0.0880   -0.0251   -0.0609   -0.0370    0.0086   -0.0000   -0.0487    0.1046
  Pz  C   22    0.0060   -0.0017    0.0032    0.0030   -0.0002   -0.0006   -0.0484   -0.0085
  S   C   23   -0.0433    0.0106    0.0609    0.0313   -0.0090    0.0014    0.1117   -0.0583
  Px  C   23   -0.1218    0.0331   -0.0152   -0.0174    0.0001   -0.0037   -0.2060    0.1178
  Py  C   23    0.0011    0.0002    0.0852    0.0399   -0.0156   -0.0059   -0.4537    0.1365
  Pz  C   23   -0.0027    0.0007    0.0006   -0.0004    0.0000   -0.0001   -0.0087   -0.0013
  S   C   24   -0.1252    0.0319   -0.0208    0.0032    0.0022   -0.0010   -0.0669    0.0383
  Px  C   24    0.0453   -0.0131   -0.0634   -0.0486    0.0084   -0.0031   -0.1993    0.1313
  Py  C   24   -0.2114    0.1037   -0.3020   -0.1612    0.0596    0.0022    0.2404   -0.0838
  Pz  C   24    0.0149   -0.0041    0.0058    0.0042   -0.0008    0.0002    0.0089   -0.0069
  S   H   25   -0.2184    0.0947    0.2033    0.1189   -0.0382    0.0013    0.1600    0.1276
  S   H   26   -0.1122    0.0332   -0.0606   -0.0239    0.0111   -0.0040   -0.3020   -0.0144
  S   H   27    0.0807   -0.0240   -0.0539   -0.0188    0.0098    0.0044    0.3024   -0.1051
  S   H   28    0.2189   -0.0849    0.1913    0.0915   -0.0382   -0.0020   -0.1882    0.0814
  S   C   29    0.1482   -0.0826   -0.2444   -0.1911    0.0403   -0.0003    0.0116   -0.0017
  Px  C   29   -0.0862    0.0324   -0.0634   -0.0895    0.0133    0.0009   -0.1055   -0.1944
  Py  C   29    0.1849   -0.1342    0.1003    0.1123   -0.0108   -0.0026   -0.0278   -0.1373
  Pz  C   29    0.0168   -0.0100   -0.0198   -0.0097    0.0033   -0.0000   -0.0024   -0.0013
  S   C   30   -0.1849    0.1032   -0.2260   -0.1622    0.0377    0.0006   -0.0143    0.0167
  Px  C   30   -0.0857    0.0789    0.0512    0.0621   -0.0021    0.0018    0.0978    0.0047
  Py  C   30    0.1455   -0.0725   -0.1211   -0.1466    0.0197   -0.0021    0.0797   -0.0233
  Pz  C   30   -0.0012   -0.0001    0.0002   -0.0033   -0.0002   -0.0001    0.0012   -0.0006


   Root No.      73        74        75        76        77        78        79        80

                73 ????   23 a      22 b      76 ????   77 ????   23 b      24 b      24 a   

                 9.362     9.524    10.126    10.646    10.956    11.619    11.724    12.129
  
  S   C    1    0.0615   -0.0627    0.0648   -0.0418    0.0606    0.0152    0.0017    0.0012
  Px  C    1    0.1415   -0.2116   -0.0808   -0.2348   -0.1228   -0.1516   -0.1537   -0.2023
  Py  C    1    0.1572   -0.1119    0.2349    0.0113    0.2208    0.1171    0.0942    0.1251
  Pz  C    1   -0.0098    0.0082   -0.0105   -0.0003   -0.0098   -0.0056   -0.0065   -0.0086
  S   C    2   -0.0337    0.0709    0.0806    0.0585    0.0825    0.0537    0.0096    0.0105
  Px  C    2    0.1456   -0.2066   -0.0009   -0.2276   -0.0221   -0.0954   -0.1551   -0.2081
  Py  C    2   -0.0286    0.1292    0.2456    0.0192    0.2034    0.0802   -0.0856   -0.1071
  Pz  C    2    0.0097   -0.0165   -0.0092   -0.0131   -0.0087   -0.0077   -0.0050   -0.0068
  S   C    3   -0.0339    0.0518    0.0062    0.0607    0.0179    0.0219    0.0160    0.0137
  Px  C    3    0.0199    0.1185    0.2559   -0.0094    0.0005   -0.2045    0.1451    0.1180
  Py  C    3    0.0264   -0.0063    0.1763   -0.0369    0.2735    0.1998   -0.2649   -0.2951
  Pz  C    3   -0.0024    0.0073    0.0090    0.0037    0.0028   -0.0036    0.0059    0.0049
  S   C    4   -0.0204    0.0537   -0.0067    0.0561   -0.0421   -0.0152   -0.0122   -0.0175
  Px  C    4   -0.1862    0.1160   -0.2429   -0.1578   -0.1538   -0.0977    0.1116    0.1683
  Py  C    4   -0.1401    0.1082   -0.1022    0.0046    0.1631    0.2680   -0.2780   -0.2717
  Pz  C    4   -0.0115    0.0097   -0.0106   -0.0019    0.0025    0.0094   -0.0151   -0.0121
  S   C    5   -0.0749    0.0955   -0.0708    0.0157   -0.0875   -0.0488   -0.0114   -0.0138
  Px  C    5   -0.1136    0.0331   -0.1673   -0.1909   -0.0661   -0.0624    0.1251    0.1924
  Py  C    5    0.1922   -0.2736    0.0989   -0.1270    0.1681    0.0836    0.0668    0.1130
  Pz  C    5    0.0099   -0.0140    0.0055   -0.0075    0.0098    0.0049    0.0057    0.0089
  S   C    6    0.0084   -0.0533   -0.0614   -0.0799   -0.0323   -0.0288   -0.0068    0.0007
  Px  C    6    0.0262   -0.1791   -0.1692   -0.2008   -0.0667   -0.0566   -0.0111    0.0044
  Py  C    6    0.1296   -0.1543    0.1952   -0.0608    0.2735    0.1567    0.1637    0.2333
  Pz  C    6    0.0081   -0.0272   -0.0133   -0.0255    0.0008   -0.0019    0.0047    0.0087
  S   C    7   -0.0312   -0.0195   -0.0846    0.0675    0.0337    0.0962    0.0116   -0.0152
  Px  C    7   -0.0188    0.1302    0.1695    0.0501    0.0145   -0.1231    0.1776    0.1264
  Py  C    7   -0.1019   -0.0065   -0.1426    0.2165    0.0873    0.1614    0.1273    0.0068
  Pz  C    7   -0.0039    0.0062    0.0059    0.0066    0.0033   -0.0028    0.0115    0.0059
  S   C    8    0.1000   -0.0223    0.0608    0.0792   -0.0780   -0.0740   -0.0031    0.0140
  Px  C    8    0.1718    0.0690    0.0122    0.1981   -0.1676   -0.0557   -0.2076   -0.0948
  Py  C    8   -0.3008    0.1423   -0.1796   -0.1245    0.1041    0.1611   -0.1023   -0.1158
  Pz  C    8   -0.0286    0.0112   -0.0167   -0.0133    0.0136    0.0167   -0.0053   -0.0078
  S   C    9   -0.0028   -0.0383    0.0313   -0.0030   -0.0093   -0.0292    0.0082    0.0020
  Px  C    9    0.2627    0.0451    0.0566    0.2389   -0.2576   -0.1183   -0.1885   -0.0773
  Py  C    9    0.1624   -0.0220   -0.1145    0.0740   -0.1177    0.2767    0.3367   -0.0784
  Pz  C    9    0.0022   -0.0039    0.0021    0.0007   -0.0033   -0.0008    0.0049   -0.0003
  S   C   10    0.0081   -0.0327   -0.0367   -0.0101    0.0007    0.0344   -0.0024    0.0022
  Px  C   10   -0.1505    0.0019    0.0252    0.2904    0.1155   -0.1331   -0.1688    0.0954
  Py  C   10   -0.0594    0.0497   -0.1271    0.1140    0.0847    0.2741    0.3475    0.0079
  Pz  C   10   -0.0043    0.0021    0.0012    0.0071    0.0033   -0.0025   -0.0052    0.0017
  S   C   11    0.0451   -0.0368   -0.0583   -0.0790   -0.0098    0.0736    0.0000    0.0149
  Px  C   11   -0.0998   -0.0345   -0.0285    0.2352    0.0848   -0.0596   -0.1832    0.1180
  Py  C   11    0.0830   -0.1561   -0.1642   -0.0973    0.0142    0.1553   -0.0825    0.1232
  Pz  C   11    0.0036   -0.0022   -0.0021   -0.0031   -0.0015    0.0031    0.0006    0.0014
  S   H   12    0.0709   -0.0717   -0.0777   -0.1006   -0.0201    0.1040    0.0055    0.0360
  S   C   13   -0.1160   -0.0496    0.0675   -0.0608    0.0475   -0.0826    0.0015   -0.0089
  Px  C   13   -0.1535   -0.1681    0.1337    0.0188   -0.0847   -0.0754    0.1787   -0.1565
  Py  C   13    0.3384    0.0754   -0.1103    0.1874   -0.1721    0.1619    0.1063   -0.0400
  Pz  C   13    0.0206    0.0047   -0.0062    0.0097   -0.0102    0.0095    0.0059   -0.0024
  S   H   14   -0.0451   -0.0416   -0.1167    0.0821    0.0450    0.1195    0.0116   -0.0372
  S   H   15    0.1291   -0.1340    0.0815   -0.0786    0.0616    0.0045   -0.0077   -0.0078
  S   H   16   -0.0447    0.1113    0.1300    0.0619    0.1146    0.0693   -0.0076   -0.0056
  S   H   17   -0.1264    0.1380   -0.1020   -0.0000   -0.1074   -0.0656    0.0063    0.0038
  S   H   18    0.0144   -0.1097   -0.1039   -0.1195   -0.0426   -0.0358   -0.0073   -0.0002
  S   H   19    0.2029   -0.0573    0.0982    0.1058   -0.0960   -0.1073   -0.0061    0.0381
  S   H   20   -0.2184   -0.0769    0.0880   -0.0819    0.0701   -0.1096   -0.0136   -0.0217
  S   C   21    0.0174    0.0883    0.0748   -0.0555   -0.0834    0.0637    0.0019   -0.0108
  Px  C   21    0.0618   -0.0340   -0.1376   -0.1300    0.1630   -0.0717    0.1116   -0.1711
  Py  C   21    0.1095    0.3049    0.1334   -0.2264   -0.1159    0.1186    0.0520   -0.1086
  Pz  C   21   -0.0070   -0.0170   -0.0085    0.0181    0.0088   -0.0094   -0.0066    0.0118
  S   C   22   -0.0575   -0.0722    0.0311    0.0608   -0.0533    0.0225    0.0034   -0.0080
  Px  C   22    0.1996    0.2205   -0.0950   -0.1470    0.1297   -0.0494   -0.0105    0.0239
  Py  C   22    0.0083    0.1440    0.1689   -0.2046   -0.2021    0.1835    0.1222   -0.2288
  Pz  C   22   -0.0238   -0.0337    0.0047    0.0270   -0.0098    0.0009   -0.0044    0.0071
  S   C   23    0.0027   -0.0714   -0.0575    0.0870    0.0257   -0.0203    0.0042   -0.0148
  Px  C   23    0.0599    0.2077   -0.0097   -0.1738    0.1689   -0.1255   -0.1113    0.2270
  Py  C   23   -0.0951    0.0700    0.2031   -0.1153   -0.1997    0.1403    0.0700   -0.1289
  Pz  C   23   -0.0078   -0.0089    0.0086    0.0040   -0.0162    0.0115    0.0097   -0.0187
  S   C   24    0.0603    0.0946   -0.0505   -0.0220    0.0957   -0.0688   -0.0069    0.0198
  Px  C   24    0.0475    0.2166    0.0523   -0.2271    0.0868   -0.0555   -0.1153    0.2351
  Py  C   24   -0.2039   -0.2310    0.1630   -0.0588   -0.1898    0.1391   -0.0699    0.1055
  Pz  C   24   -0.0034   -0.0122   -0.0002    0.0099   -0.0077    0.0055    0.0045   -0.0089
  S   H   25    0.0357    0.1573    0.1030   -0.0736   -0.1047    0.0835   -0.0089   -0.0014
  S   H   26   -0.1234   -0.1374    0.0547    0.0923   -0.0747    0.0279    0.0026   -0.0094
  S   H   27    0.0385   -0.0924   -0.1051    0.1102    0.0559   -0.0378   -0.0004   -0.0032
  S   H   28    0.1171    0.1791   -0.0662   -0.0342    0.1211   -0.0891    0.0044    0.0115
  S   C   29    0.0294    0.0456    0.0110   -0.0701   -0.0210    0.0310    0.0040   -0.0066
  Px  C   29    0.0622   -0.1049   -0.2205   -0.0634    0.2459   -0.1258    0.1079   -0.1556
  Py  C   29    0.0448   -0.1078   -0.1135   -0.0020   -0.0897    0.2807   -0.2544    0.2913
  Pz  C   29    0.0009    0.0002   -0.0004   -0.0028   -0.0008    0.0020    0.0008   -0.0017
  S   C   30    0.0062    0.0409    0.0001   -0.0519    0.0430   -0.0267   -0.0076    0.0156
  Px  C   30   -0.2534   -0.1940    0.2128   -0.0551   -0.0425   -0.1580    0.1566   -0.1402
  Py  C   30   -0.0962   -0.0651    0.1347   -0.1322   -0.2251    0.2748   -0.2365    0.3166
  Pz  C   30   -0.0023   -0.0018    0.0013   -0.0004   -0.0027    0.0036   -0.0057    0.0063


   Root No.      81        82        83        84

                81 ????   82 ????   25 a      25 b   

                12.615    12.698    13.173    14.474
  
  S   C    1   -0.0581   -0.0135    0.0054    0.0383
  Px  C    1   -0.2042    0.1834    0.1792    0.0975
  Py  C    1   -0.0188   -0.1451   -0.0973    0.0285
  Pz  C    1   -0.0017    0.0089    0.0066    0.0008
  S   C    2   -0.0083   -0.0190   -0.0108    0.0263
  Px  C    2   -0.2546    0.1703    0.1797    0.1447
  Py  C    2   -0.1594    0.0456    0.0587    0.1242
  Pz  C    2   -0.0073    0.0066    0.0063    0.0027
  S   C    3    0.0045    0.0009    0.0137    0.0292
  Px  C    3   -0.2590    0.0622    0.2633    0.2282
  Py  C    3   -0.1522    0.0964    0.0064    0.1083
  Pz  C    3   -0.0073    0.0016    0.0086    0.0085
  S   C    4    0.0173    0.0126   -0.0060    0.0207
  Px  C    4   -0.2087   -0.2345   -0.1298    0.2250
  Py  C    4   -0.1058   -0.0542   -0.2054    0.1444
  Pz  C    4   -0.0097   -0.0080   -0.0137    0.0131
  S   C    5   -0.0124    0.0152    0.0132    0.0263
  Px  C    5   -0.2186   -0.2593   -0.1350    0.2004
  Py  C    5   -0.0838   -0.1745   -0.1172    0.0654
  Pz  C    5   -0.0061   -0.0126   -0.0082    0.0054
  S   C    6   -0.0619   -0.0224   -0.0060    0.0419
  Px  C    6   -0.1314   -0.0485   -0.0125    0.0829
  Py  C    6   -0.0743   -0.2933   -0.1975    0.0802
  Pz  C    6   -0.0160   -0.0146   -0.0074    0.0102
  S   C    7    0.0547    0.0211   -0.0094    0.0063
  Px  C    7   -0.2236    0.0763    0.2649    0.2477
  Py  C    7   -0.0151    0.1141    0.1225    0.1463
  Pz  C    7   -0.0115    0.0061    0.0149    0.0138
  S   C    8    0.0604    0.0088    0.0026    0.0103
  Px  C    8   -0.0320   -0.1644   -0.2278    0.2663
  Py  C    8   -0.1568   -0.0837   -0.1455    0.1342
  Pz  C    8   -0.0137   -0.0053   -0.0081    0.0076
  S   C    9    0.0559    0.0273   -0.0016   -0.0036
  Px  C    9    0.0343   -0.1332   -0.2320    0.2752
  Py  C    9   -0.0302    0.2520   -0.1015    0.1598
  Pz  C    9    0.0032    0.0042   -0.0017    0.0027
  S   C   10    0.0595   -0.0025   -0.0040   -0.0041
  Px  C   10    0.0615   -0.1174    0.2205    0.2498
  Py  C   10   -0.1183    0.2473    0.1410    0.1532
  Pz  C   10   -0.0017   -0.0025    0.0053    0.0065
  S   C   11    0.0589    0.0083    0.0149   -0.0042
  Px  C   11    0.1411   -0.1242    0.2363    0.2498
  Py  C   11    0.1788   -0.0127    0.1594    0.1246
  Pz  C   11    0.0009    0.0012    0.0004    0.0007
  S   H   12    0.0408    0.0283    0.0209    0.0003
  S   C   13    0.0625    0.0116   -0.0088   -0.0111
  Px  C   13    0.1740    0.1586   -0.2396    0.2613
  Py  C   13   -0.0388    0.0945   -0.1026    0.1607
  Pz  C   13   -0.0019    0.0048   -0.0055    0.0076
  S   H   14    0.0441    0.0358   -0.0157    0.0004
  S   H   15   -0.0732   -0.0098    0.0096    0.0405
  S   H   16   -0.0148   -0.0187   -0.0177    0.0208
  S   H   17   -0.0193    0.0113    0.0206    0.0195
  S   H   18   -0.0723   -0.0211   -0.0017    0.0415
  S   H   19    0.0616   -0.0104    0.0137    0.0008
  S   H   20    0.0519   -0.0175   -0.0070   -0.0162
  S   C   21   -0.0170   -0.0252    0.0137   -0.0280
  Px  C   21    0.3072   -0.1355    0.1354    0.1730
  Py  C   21    0.1417   -0.1412    0.1253    0.0489
  Pz  C   21   -0.0133    0.0128   -0.0104   -0.0043
  S   C   22   -0.0661   -0.0128   -0.0060   -0.0375
  Px  C   22    0.1381    0.0353    0.0066    0.0756
  Py  C   22    0.1778   -0.2678    0.2096    0.0585
  Pz  C   22   -0.0243    0.0062   -0.0085   -0.0111
  S   C   23   -0.0633   -0.0282    0.0099   -0.0404
  Px  C   23    0.1226    0.2973   -0.1780    0.1068
  Py  C   23    0.0713   -0.1469    0.1054    0.0207
  Pz  C   23   -0.0029   -0.0228    0.0142   -0.0049
  S   C   24   -0.0072    0.0320   -0.0244   -0.0193
  Px  C   24    0.1711    0.3042   -0.1715    0.1495
  Py  C   24    0.1076    0.0916   -0.0255    0.1117
  Pz  C   24   -0.0060   -0.0115    0.0067   -0.0040
  S   H   25   -0.0100   -0.0311    0.0276   -0.0169
  S   H   26   -0.0801   -0.0179   -0.0039   -0.0404
  S   H   27   -0.0686   -0.0109   -0.0034   -0.0373
  S   H   28    0.0007    0.0418   -0.0375   -0.0072
  S   C   29    0.0051   -0.0027   -0.0069   -0.0283
  Px  C   29    0.3199   -0.1181    0.1399    0.2114
  Py  C   29    0.1057   -0.0145    0.2238    0.1180
  Pz  C   29    0.0026   -0.0023    0.0021    0.0007
  S   C   30    0.0105    0.0072    0.0081   -0.0253
  Px  C   30    0.2225    0.1641   -0.2335    0.2322
  Py  C   30    0.0723    0.1460    0.0270    0.0903
  Pz  C   30   -0.0004    0.0017    0.0007    0.0006


              NET ATOMIC CHARGES AND DIPOLE CONTRIBUTIONS

  ATOM NO.   TYPE          CHARGE      No. of ELECS.   s-Pop       p-Pop       
    1          C          -0.034126        4.0341     1.11074     2.92339
    2          C          -0.034124        4.0341     1.10941     2.92471
    3          C           0.016664        3.9833     1.06670     2.91664
    4          C           0.015536        3.9845     1.06845     2.91602
    5          C          -0.029671        4.0297     1.10567     2.92400
    6          C          -0.030835        4.0308     1.09679     2.93405
    7          C          -0.026153        4.0262     1.09044     2.93571
    8          C          -0.031932        4.0319     1.09067     2.94126
    9          C           0.013586        3.9864     1.06530     2.92112
   10          C           0.003834        3.9962     1.07704     2.91913
   11          C          -0.041775        4.0418     1.11203     2.92974
   12          H           0.020274        0.9797     0.97973
   13          C          -0.039068        4.0391     1.09871     2.94036
   14          H           0.028399        0.9716     0.97160
   15          H           0.026888        0.9731     0.97311
   16          H           0.025239        0.9748     0.97476
   17          H           0.011992        0.9880     0.98801
   18          H           0.030396        0.9696     0.96960
   19          H           0.030754        0.9692     0.96925
   20          H           0.026103        0.9739     0.97390
   21          C          -0.029613        4.0296     1.10562     2.92399
   22          C          -0.020813        4.0208     1.09688     2.92394
   23          C          -0.021884        4.0219     1.08597     2.93591
   24          C          -0.027532        4.0275     1.09807     2.92947
   25          H           0.025327        0.9747     0.97467
   26          H           0.026305        0.9737     0.97369
   27          H           0.021107        0.9789     0.97889
   28          H           0.025835        0.9742     0.97417
   29          C           0.014771        3.9852     1.06605     2.91918
   30          C           0.004516        3.9955     1.07652     2.91897
 DIPOLE           X         Y         Z       TOTAL
 POINT-CHG.     0.226     0.103    -0.019     0.249
 HYBRID        -0.131     0.086    -0.131     0.204
 SUM            0.095     0.190    -0.150     0.260


          ATOMIC ORBITAL ELECTRON POPULATIONS

     Atom    s        px        py        pz   
    1  C   1.11074   0.96814   0.96732   0.98792
    2  C   1.10941   0.97269   0.94092   1.01110
    3  C   1.06670   0.97343   0.95778   0.98542
    4  C   1.06845   0.96423   0.96495   0.98683
    5  C   1.10567   0.96001   0.95564   1.00835
    6  C   1.09679   0.94618   0.99832   0.98955
    7  C   1.09044   0.97092   0.95549   1.00931
    8  C   1.09067   0.97536   0.95109   1.01480
    9  C   1.06530   0.97534   0.96614   0.97964
   10  C   1.07704   0.96774   0.96815   0.98324
   11  C   1.11203   0.96442   0.94985   1.01547
   12  H   0.97973
   13  C   1.09871   0.97277   0.94508   1.02251
   14  H   0.97160
   15  H   0.97311
   16  H   0.97476
   17  H   0.98801
   18  H   0.96960
   19  H   0.96925
   20  H   0.97390
   21  C   1.10562   0.96873   0.95036   1.00490
   22  C   1.09688   0.94856   0.98734   0.98803
   23  C   1.08597   0.98752   0.94841   0.99999
   24  C   1.09807   0.97681   0.95715   0.99550
   25  H   0.97467
   26  H   0.97369
   27  H   0.97889
   28  H   0.97417
   29  C   1.06605   0.96267   0.97427   0.98223
   30  C   1.07652   0.97263   0.96958   0.97676

 **********************
 *                    *
 * JOB ENDED NORMALLY *
 *                    *
 **********************



 TOTAL JOB TIME:             2.36 SECONDS

 == MOPAC DONE ==


          MOPAC Job: "./tetraceneTraj/tetracene_1996.mop" ended normally on Feb 15, 2023, at 11:38.

rm: cannot remove ./tetraceneTraj/tetracene_1996.cim: No such file or directory
rm: cannot remove ./tetraceneTraj/tetracene_1996.end: No such file or directory
rm: cannot remove ./tetraceneTraj/tetracene_1996.log: No such file or directory
rm: cannot remove ./tetraceneTraj/tetracene_1996.temp: No such file or directory
rm: cannot remove ./tetraceneTraj/tetracene_1996.ple: No such file or directory
rm: cannot remove ./tetraceneTraj/tetracene_1996.sts: No such file or directory
