 *******************************************************************************
 ** Site#:    0         For non-commercial use only    Version 20.173L 64BITS **
 *******************************************************************************
 ** Cite this program as: MOPAC2016, Version: 20.173L, James J. P. Stewart,   **
 ** Stewart Computational Chemistry, web-site: HTTP://OpenMOPAC.net.          **
 *******************************************************************************
 **                                                                           **
 **                                MOPAC2016                                  **
 **                                                                           **
 *******************************************************************************

                              INDO CALCULATION RESULTS

 *******************************************************************************
 *  CALCULATION DONE:                                Wed Feb 15 11:27:54 2023  *
 *  INDO       - The INDO Hamiltonian to be used
 *
 *
 *
 *                 CHARGE ON SYSTEM = 0
 *
 *
 *
 *  C.I.=(N,M) - 3 DOUBLY FILLED LEVELS USED IN A C.I. INVOLVING 6 M.O.'S
 *  T=         - A TIME OF 172800.0 SECONDS REQUESTED
 *  DUMP=N     - RESTART FILE WRITTEN EVERY 7200.0 SECONDS REQUESTED
 *  RELSCF     - DEFAULT SCF CRITERION MULTIPLIED BY 0.0000
 *              (DEFAULT SCF CRITERION = 0.00010)
 *  ALLVEC     - PRINT ALL EIGENVECTORS
 **********
 *  WARNING: Specified print options may not behave as expected with INDO
 **********
 *******************************************************************************
INDO C.I.=(6,3) AllVEC CHARGE=0 RELSCF=0.000001


   ATOM   CHEMICAL          X               Y               Z
  NUMBER   SYMBOL      (ANGSTROMS)     (ANGSTROMS)     (ANGSTROMS)
 
     1       C         18.45811966  *  19.49496670  *  22.25728985  *
     2       C         19.85566714  *  19.43677286  *  22.33624739  *
     3       C         20.65018499  *  20.62969058  *  22.40334689  *
     4       C         19.96259515  *  21.97309522  *  22.41508999  *
     5       C         18.47596852  *  21.99337173  *  22.46015462  *
     6       C         17.78872138  *  20.75272304  *  22.38626335  *
     7       C         22.08888227  *  20.65608985  *  22.48736716  *
     8       C         20.73174619  *  23.15679540  *  22.41319674  *
     9       C         22.16818303  *  23.10993713  *  22.51260772  *
    10       C         22.88563631  *  21.83522664  *  22.52339657  *
    11       C         24.33506999  *  21.84378554  *  22.56875973  *
    12       H         24.82995594  *  20.86373924  *  22.46195942  *
    13       C         22.93038736  *  24.29316735  *  22.56869369  *
    14       H         22.59180352  *  19.69282763  *  22.45994639  *
    15       H         17.85914924  *  18.55420020  *  22.10495546  *
    16       H         20.39290264  *  18.48763157  *  22.17842510  *
    17       H         17.96111056  *  22.95952731  *  22.63478528  *
    18       H         16.72697045  *  20.81867056  *  22.50881378  *
    19       H         20.25222985  *  24.13373251  *  22.33893517  *
    20       H         22.48768525  *  25.29793834  *  22.53723878  *
    21       C         26.54234006  *  23.04141807  *  22.63593643  *
    22       C         27.17600356  *  24.25549352  *  22.49426412  *
    23       C         26.45216357  *  25.55055054  *  22.49181956  *
    24       C         25.08030221  *  25.58814426  *  22.69155895  *
    25       H         27.14359985  *  22.11996011  *  22.69038929  *
    26       H         28.28553986  *  24.32425861  *  22.40107985  *
    27       H         26.96750058  *  26.51125188  *  22.33321819  *
    28       H         24.55132523  *  26.57247136  *  22.58936927  *
    29       C         25.06769436  *  23.03434736  *  22.70325221  *
    30       C         24.34615374  *  24.32618501  *  22.71466063  *
 


          CARTESIAN COORDINATES 

    NO.       ATOM           X           Y           Z

     1         C         18.4581     19.4950     22.2573
     2         C         19.8557     19.4368     22.3362
     3         C         20.6502     20.6297     22.4033
     4         C         19.9626     21.9731     22.4151
     5         C         18.4760     21.9934     22.4602
     6         C         17.7887     20.7527     22.3863
     7         C         22.0889     20.6561     22.4874
     8         C         20.7317     23.1568     22.4132
     9         C         22.1682     23.1099     22.5126
    10         C         22.8856     21.8352     22.5234
    11         C         24.3351     21.8438     22.5688
    12         H         24.8300     20.8637     22.4620
    13         C         22.9304     24.2932     22.5687
    14         H         22.5918     19.6928     22.4599
    15         H         17.8591     18.5542     22.1050
    16         H         20.3929     18.4876     22.1784
    17         H         17.9611     22.9595     22.6348
    18         H         16.7270     20.8187     22.5088
    19         H         20.2522     24.1337     22.3389
    20         H         22.4877     25.2979     22.5372
    21         C         26.5423     23.0414     22.6359
    22         C         27.1760     24.2555     22.4943
    23         C         26.4522     25.5506     22.4918
    24         C         25.0803     25.5881     22.6916
    25         H         27.1436     22.1200     22.6904
    26         H         28.2855     24.3243     22.4011
    27         H         26.9675     26.5113     22.3332
    28         H         24.5513     26.5725     22.5894
    29         C         25.0677     23.0343     22.7033
    30         C         24.3462     24.3262     22.7147

           Empirical Formula: C18 H12  =    30 atoms



      MOLECULAR POINT GROUP   :   C1  


      RHF CALCULATION, NO. OF DOUBLY OCCUPIED LEVELS = 42

 WARNING: INDO only performs single-point calculations
  SCF CRITERION =    0.1000E-09

 Summary of symmetry occupancy in each shell:

 SHELL     
    1   42
    v   42
 TOTAL  84




    ROOT NO.    1           2           3           4           5           6

           -44.29778   -42.52785   -40.14594   -36.69687   -35.51468   -33.98393
  
  
  S  C   1   0.10004     0.23263    -0.27192     0.25381    -0.03872    -0.10223
 PX  C   1   0.02707     0.05458    -0.04695     0.01157    -0.04184    -0.08730
 PY  C   1   0.03525     0.07798    -0.08289     0.06200     0.02332     0.04831
 PZ  C   1   0.00452     0.01022    -0.01126     0.00898     0.00092     0.00170
  
  S  C   2   0.12935     0.25680    -0.22982     0.11821    -0.15312    -0.28404
 PX  C   2  -0.00131    -0.02821     0.07044    -0.10764    -0.04440    -0.04656
 PY  C   2   0.05083     0.09132    -0.06385     0.00312    -0.01476    -0.01633
 PZ  C   2   0.00040    -0.00050     0.00280    -0.00521     0.00173     0.00554
  
  S  C   3   0.23301     0.31845    -0.08791    -0.16428    -0.16570    -0.21948
 PX  C   3   0.00903    -0.05316     0.13326    -0.13206    -0.07310    -0.05576
 PY  C   3   0.04922     0.02870     0.06044    -0.10254     0.07893     0.13380
 PZ  C   3   0.00228    -0.00019     0.00615    -0.00815    -0.00047     0.00296
  
  S  C   4   0.23316     0.31038    -0.07039    -0.18491     0.15701     0.21562
 PX  C   4   0.04957     0.00012     0.11937    -0.15346    -0.03272    -0.07626
 PY  C   4  -0.01855    -0.06122     0.08232    -0.06034     0.10410     0.12103
 PZ  C   4   0.00162     0.00078     0.00201    -0.00274     0.00238     0.00408
  
  S  C   5   0.12151     0.23857    -0.20918     0.09980     0.16417     0.28934
 PX  C   5   0.03984     0.05731    -0.01212    -0.05744     0.03065     0.03219
 PY  C   5  -0.02948    -0.07442     0.09392    -0.09078     0.01435     0.01265
 PZ  C   5  -0.00196    -0.00468     0.00534    -0.00417     0.00059     0.00152
  
  S  C   6   0.09973     0.23131    -0.26950     0.25047     0.07191     0.13711
 PX  C   6   0.04297     0.09155    -0.09013     0.05250     0.00640     0.00423
 PY  C   6   0.00193    -0.00075     0.01101    -0.02941     0.04323     0.09317
 PZ  C   6  -0.00000    -0.00029     0.00082    -0.00154     0.00343     0.00782
  
  S  C   7   0.22620     0.16459     0.13759    -0.22745    -0.29838    -0.21170
 PX  C   7  -0.02066    -0.07150     0.04260     0.07838    -0.02643     0.06174
 PY  C   7   0.07711     0.02509     0.08349    -0.05940    -0.00147     0.04514
 PZ  C   7  -0.00214    -0.00453     0.00155     0.00535     0.00313     0.00679
  
  S  C   8   0.22702     0.16134     0.14538    -0.24273     0.28738     0.21345
 PX  C   8   0.05395    -0.01635     0.09101    -0.00619     0.01602    -0.06893
 PY  C   8  -0.06048    -0.07510    -0.01137     0.10170     0.02248    -0.03269
 PZ  C   8   0.00507     0.00145     0.00522    -0.00250     0.00436     0.00053
  
  S  C   9   0.34339     0.03603     0.29635    -0.01154     0.21082     0.02630
 PX  C   9   0.03980    -0.08541     0.02372     0.19428    -0.06684    -0.06626
 PY  C   9  -0.04141    -0.05277    -0.03765     0.10087     0.14281    -0.01451
 PZ  C   9   0.00047    -0.00534    -0.00035     0.01312    -0.00201    -0.00422
  
  S  C  10   0.33461     0.03354     0.28656     0.00313    -0.22896    -0.02523
 PX  C  10  -0.02051    -0.08927    -0.02627     0.18961    -0.06732     0.05019
 PY  C  10   0.06040    -0.04284     0.04523     0.10174     0.12618     0.04663
 PZ  C  10   0.00019    -0.00453    -0.00017     0.01056    -0.00014     0.00248
  
  S  C  11   0.25304    -0.11669     0.13285     0.23098    -0.31444     0.15683
 PX  C  11  -0.04950    -0.02733    -0.09173    -0.01314     0.00690     0.08030
 PY  C  11   0.07826    -0.06557     0.00911     0.09958     0.01140     0.04380
 PZ  C  11   0.00161    -0.00337    -0.00128     0.00663     0.00039     0.00478
  
  S  H  12   0.07578    -0.03231     0.03842     0.06054    -0.15910     0.07346
  
  S  C  13   0.26780    -0.11816     0.14652     0.22171     0.31830    -0.15496
 PX  C  13   0.03723    -0.07206    -0.04439     0.08447    -0.01805    -0.07821
 PY  C  13  -0.08408     0.00666    -0.08811    -0.05754     0.01124    -0.05442
 PZ  C  13   0.00208    -0.00419    -0.00162     0.00843     0.00131    -0.00712
  
  S  H  14   0.07087     0.05187     0.03830    -0.06277    -0.15496    -0.11083
  
  S  H  15   0.02474     0.06131    -0.07939     0.08914    -0.01677    -0.04528
  
  S  H  16   0.04002     0.07641    -0.06408     0.02774    -0.08131    -0.14419
  
  S  H  17   0.03631     0.06800    -0.05494     0.01995     0.08040     0.13920
  
  S  H  18   0.02712     0.06675    -0.08566     0.09485     0.03333     0.06859
  
  S  H  19   0.07106     0.04742     0.04425    -0.06780     0.15059     0.10480
  
  S  H  20   0.08324    -0.03940     0.03754     0.05985     0.16775    -0.08742
  
  S  C  21   0.16233    -0.21865    -0.22134    -0.12158    -0.20129     0.29026
 PX  C  21  -0.05279     0.05283     0.01704    -0.05181     0.03699    -0.02715
 PY  C  21   0.03990    -0.06712    -0.09318    -0.09299     0.01805    -0.00914
 PZ  C  21  -0.00240     0.00349     0.00458     0.00564     0.00148    -0.00287
  
  S  C  22   0.13200    -0.20545    -0.26466    -0.25155    -0.07977     0.13235
 PX  C  22  -0.05826     0.08349     0.09151     0.05645     0.00773    -0.00644
 PY  C  22  -0.00680     0.00636    -0.00095    -0.01988     0.06180    -0.10461
 PZ  C  22   0.00544    -0.00830    -0.00989    -0.00685    -0.00383     0.00639
  
  S  C  23   0.13132    -0.20435    -0.26323    -0.25297     0.07359    -0.13192
 PX  C  23  -0.03593     0.04865     0.04676     0.01495    -0.05571     0.09063
 PY  C  23  -0.04651     0.06856     0.07954     0.05870     0.02644    -0.04765
 PZ  C  23   0.00591    -0.00904    -0.01084    -0.00776     0.00361    -0.00642
  
  S  C  24   0.16629    -0.22196    -0.22118    -0.12431     0.19921    -0.28726
 PX  C  24   0.00580    -0.03004    -0.07305    -0.10827    -0.04071     0.02552
 PY  C  24  -0.06630     0.07985     0.06127     0.00169    -0.02052     0.01633
 PZ  C  24  -0.00779     0.01101     0.01256     0.01078    -0.00870     0.01391
  
  S  H  25   0.04690    -0.06202    -0.06145    -0.03227    -0.09615     0.13726
  
  S  H  26   0.03299    -0.05491    -0.07873    -0.09065    -0.03171     0.05617
  
  S  H  27   0.03363    -0.05562    -0.07906    -0.09098     0.03327    -0.06249
  
  S  H  28   0.04901    -0.06314    -0.05980    -0.03154     0.09839    -0.13754
  
  S  C  29   0.29284    -0.26892    -0.08198     0.16626    -0.19229     0.20197
 PX  C  29  -0.05421    -0.00932    -0.12155    -0.15965    -0.04206     0.08446
 PY  C  29   0.02959    -0.05876    -0.08259    -0.06259     0.11692    -0.10165
 PZ  C  29  -0.01285     0.01055     0.00122    -0.00778     0.01091    -0.01051
  
  S  C  30   0.29704    -0.27250    -0.08269     0.16056     0.18463    -0.19370
 PX  C  30  -0.00519    -0.05421    -0.13569    -0.13545    -0.08351     0.04950
 PY  C  30  -0.05877     0.01958    -0.06225    -0.10634     0.10389    -0.13152
 PZ  C  30  -0.01395     0.01133     0.00098    -0.00825    -0.00968     0.00896




    ROOT NO.    7           8           9          10          11          12

           -31.76638   -31.19097   -28.81271   -28.04466   -26.79081   -26.00336
  
  
  S  C   1   0.13376     0.28476     0.17472    -0.25945     0.01594    -0.20201
 PX  C   1   0.11821    -0.07484     0.11474     0.15053    -0.02589    -0.07107
 PY  C   1  -0.07383     0.02056    -0.09222     0.01213     0.06296     0.09875
 PZ  C   1  -0.00355     0.00428    -0.00593     0.00127     0.00541     0.00883
  
  S  C   2   0.29438    -0.02045     0.18262     0.12018    -0.10703    -0.02398
 PX  C   2  -0.00768    -0.14484    -0.12216     0.11691    -0.06019     0.20667
 PY  C   2  -0.00473    -0.07799    -0.05519     0.09097     0.08469     0.08511
 PZ  C   2  -0.01026    -0.00814    -0.01568     0.00547     0.00797     0.01607
  
  S  C   3   0.11294    -0.24404    -0.09938     0.12138     0.09669     0.18528
 PX  C   3  -0.05664     0.02734    -0.14258    -0.14293    -0.06681     0.08945
 PY  C   3  -0.10011    -0.01949    -0.00000    -0.09490     0.17937    -0.11191
 PZ  C   3  -0.00872    -0.00114    -0.01114    -0.00678     0.00476     0.00381
  
  S  C   4  -0.06572    -0.27267     0.11812     0.09492     0.09173    -0.19737
 PX  C   4   0.10223     0.02757     0.04039    -0.17662     0.10831     0.04662
 PY  C   4  -0.01004     0.02562     0.11213    -0.09009    -0.16197    -0.10695
 PZ  C   4  -0.00427    -0.00105    -0.00356     0.00097    -0.00075     0.00069
  
  S  C   5  -0.28451    -0.09104    -0.15671     0.17902    -0.11164     0.03658
 PX  C   5   0.03801    -0.13869     0.13620     0.10198     0.03219    -0.19890
 PY  C   5   0.02929    -0.07275     0.07960     0.02420    -0.09261    -0.09940
 PZ  C   5  -0.00219    -0.00231    -0.00287     0.00175    -0.00750     0.00310
  
  S  C   6  -0.20360     0.24760    -0.21716    -0.19777     0.01688     0.19991
 PX  C   6   0.01225    -0.03040     0.04665     0.08936     0.04033    -0.08237
 PY  C   6  -0.11965    -0.10369    -0.12596     0.16133    -0.05494     0.12556
 PZ  C   6  -0.01155    -0.00533    -0.01495     0.00926    -0.00558     0.01829
  
  S  C   7  -0.15271    -0.00233    -0.25482    -0.11049    -0.16328     0.02732
 PX  C   7  -0.13189     0.13550     0.04423    -0.01438    -0.12502    -0.20054
 PY  C   7  -0.07189     0.08666     0.02023    -0.08747     0.15556    -0.12103
 PZ  C   7  -0.00606     0.00682     0.00396    -0.00041     0.00249    -0.01102
  
  S  C   8   0.14461     0.00662     0.23320    -0.14857    -0.17308    -0.00987
 PX  C   8   0.10415     0.17145    -0.05383    -0.06916     0.06224     0.19913
 PY  C   8   0.06049     0.08100    -0.01784     0.04506    -0.17958     0.11290
 PZ  C   8   0.00373     0.00616    -0.00250    -0.00188     0.00387     0.00710
  
  S  C   9   0.18289     0.26991     0.01069     0.01499     0.08886     0.17817
 PX  C   9  -0.06454     0.01065    -0.09186     0.19286     0.11825    -0.06044
 PY  C   9   0.14094    -0.01717    -0.03496     0.09937    -0.21535     0.12504
 PZ  C   9  -0.00292    -0.00327    -0.00809     0.01360     0.00640    -0.00522
  
  S  C  10  -0.23768     0.22784    -0.00769     0.01476     0.06690    -0.19287
 PX  C  10  -0.06380    -0.03706     0.12648     0.16617    -0.12954    -0.05727
 PY  C  10   0.12191     0.03724     0.06976     0.10012     0.22444     0.10446
 PZ  C  10  -0.00094    -0.00235     0.00461     0.00896     0.00327    -0.00118
  
  S  C  11  -0.16810    -0.03022     0.25856     0.09469    -0.19237     0.00783
 PX  C  11   0.11930    -0.13622     0.04999    -0.10271    -0.06208     0.19670
 PY  C  11   0.06898    -0.07549     0.03545     0.02596     0.18795     0.11031
 PZ  C  11   0.00662    -0.01042     0.00456    -0.00146     0.01136     0.01363
  
  S  H  12  -0.08567    -0.01140     0.11641     0.00603    -0.22377    -0.00278
  
  S  C  13   0.17307     0.01527    -0.22270     0.14109    -0.17227    -0.00577
 PX  C  13  -0.09803    -0.16026    -0.06801    -0.01703     0.11073    -0.19769
 PY  C  13  -0.05093    -0.09944    -0.05258    -0.09767    -0.16984    -0.11718
 PZ  C  13  -0.00526    -0.01393    -0.00991     0.00003     0.00637    -0.01868
  
  S  H  14  -0.07166    -0.00943    -0.11960    -0.01294    -0.21061     0.02299
  
  S  H  15   0.06376     0.14854     0.09506    -0.17915    -0.01536    -0.12873
  
  S  H  16   0.14221    -0.01128     0.08094     0.04662    -0.12215     0.00415
  
  S  H  17  -0.13242    -0.04390    -0.07106     0.07353    -0.11937     0.02219
  
  S  H  18  -0.11270     0.13664    -0.14238    -0.14601    -0.01772     0.15980
  
  S  H  19   0.07475     0.00041     0.11531    -0.03127    -0.21064     0.00339
  
  S  H  20   0.07705    -0.00736    -0.11628     0.01936    -0.21824    -0.01965
  
  S  C  21   0.27206    -0.00128    -0.17810    -0.11557    -0.12812    -0.02091
 PX  C  21   0.02275     0.13543    -0.12396     0.14819    -0.05053    -0.18349
 PY  C  21   0.02107     0.07694    -0.07999     0.05104     0.10104    -0.10340
 PZ  C  21  -0.00428    -0.01118     0.00873    -0.01466     0.00025     0.01395
  
  S  C  22   0.14632     0.26782    -0.17643     0.26525     0.01448    -0.18740
 PX  C  22   0.00412     0.02454    -0.02530     0.09801    -0.04981    -0.06296
 PY  C  22  -0.13419     0.06105     0.15028     0.12423     0.07203     0.09596
 PZ  C  22   0.00785    -0.00264    -0.00866    -0.01489     0.00065    -0.00280
  
  S  C  23  -0.19405     0.23569     0.23281     0.22627     0.02946     0.17751
 PX  C  23   0.09840     0.08130    -0.08297     0.16997     0.02930    -0.06290
 PY  C  23  -0.06648    -0.02505     0.09876    -0.00111    -0.07145     0.10484
 PZ  C  23  -0.00780    -0.00422     0.00605    -0.01787     0.00244     0.00348
  
  S  C  24  -0.26203    -0.05550     0.14360    -0.14892    -0.11716     0.02128
 PX  C  24  -0.05294     0.12886     0.15716     0.09204     0.07805     0.18036
 PY  C  24  -0.02251     0.07604     0.08654     0.08887    -0.08612     0.10187
 PZ  C  24   0.01709    -0.00895    -0.01931    -0.00755     0.00612    -0.01686
  
  S  H  25   0.12812     0.00373    -0.08609    -0.03679    -0.13630    -0.01838
  
  S  H  26   0.06815     0.14473    -0.09551     0.19223    -0.01919    -0.12811
  
  S  H  27  -0.10042     0.12457     0.14231     0.15994    -0.01424     0.12770
  
  S  H  28  -0.12167    -0.02321     0.06888    -0.05269    -0.13193     0.01391
  
  S  C  29   0.08314    -0.24095     0.11429    -0.14384     0.10270     0.18723
 PX  C  29   0.10061     0.01483    -0.06555    -0.15211    -0.11483     0.05241
 PY  C  29   0.01213    -0.02299    -0.13589    -0.06930     0.17476    -0.10920
 PZ  C  29  -0.00200     0.00304    -0.00860    -0.00417     0.00438    -0.00748
  
  S  C  30  -0.03998    -0.25205    -0.13881    -0.12392     0.09786    -0.17473
 PX  C  30  -0.05516    -0.02369     0.11741    -0.16136     0.09165     0.07755
 PY  C  30  -0.08347     0.00831    -0.03581    -0.09117    -0.19360    -0.10429
 PZ  C  30   0.00079     0.00278     0.00515    -0.00708     0.00228     0.00335




    ROOT NO.   13          14          15          16          17          18

           -25.07206   -24.02686   -22.72629   -21.53434   -20.67228   -19.29534
  
  
  S  C   1  -0.00028     0.12372    -0.02475     0.17995    -0.02835    -0.03600
 PX  C   1   0.02771    -0.23083     0.02237    -0.02142     0.19931     0.20123
 PY  C   1  -0.13941     0.01364     0.20647    -0.08946    -0.14781     0.19665
 PZ  C   1  -0.01249    -0.00360     0.02097    -0.01430    -0.00885     0.03080
  
  S  C   2   0.16023    -0.18278    -0.10186    -0.13920     0.11072     0.05168
 PX  C   2   0.07683     0.03159    -0.05912    -0.17995    -0.12897    -0.13682
 PY  C   2  -0.17708     0.01233     0.21497    -0.04659    -0.15543     0.06925
 PZ  C   2  -0.01734     0.00948     0.02165    -0.00432    -0.02449     0.00573
  
  S  C   3  -0.12738     0.10621     0.02048    -0.09737    -0.06304    -0.14968
 PX  C   3   0.14045     0.14881    -0.16746     0.10160    -0.00412    -0.04510
 PY  C   3  -0.19747     0.09114     0.01141     0.11152     0.13857    -0.08485
 PZ  C   3  -0.00387     0.01011    -0.00240     0.01481    -0.00023    -0.00261
  
  S  C   4  -0.11151     0.09958    -0.00493     0.08878    -0.04657    -0.15319
 PX  C   4  -0.08202     0.16021    -0.07242    -0.18968     0.09106    -0.03768
 PY  C   4   0.23897     0.06508    -0.15217    -0.01973    -0.08527     0.04084
 PZ  C   4   0.00435    -0.00429    -0.00851     0.00967     0.00870    -0.00802
  
  S  C   5   0.16204    -0.19710    -0.10827     0.11730     0.13258    -0.00437
 PX  C   5  -0.08741     0.02070     0.11601     0.18335    -0.17322    -0.04437
 PY  C   5   0.16015     0.01530    -0.17528     0.09351    -0.00525    -0.18351
 PZ  C   5   0.01649    -0.00513    -0.02327     0.00126     0.01690    -0.02043
  
  S  C   6  -0.01557     0.12425     0.01022    -0.16279    -0.06173     0.03623
 PX  C   6  -0.10213    -0.11831     0.17686     0.14484     0.00074     0.21547
 PY  C   6   0.08927    -0.19799    -0.07642    -0.08530     0.23119     0.07065
 PZ  C   6   0.01132    -0.01298    -0.01476    -0.02152     0.02368    -0.00280
  
  S  C   7   0.12941     0.09950     0.04236     0.23484    -0.05448     0.12685
 PX  C   7   0.04088    -0.14129     0.16913     0.08417     0.01101     0.17519
 PY  C   7  -0.11900    -0.10125    -0.03679    -0.01839     0.22473     0.02479
 PZ  C   7  -0.00360    -0.00820     0.00587     0.00534     0.00382     0.01097
  
  S  C   8   0.13833     0.10663     0.05908    -0.18500    -0.09532     0.16695
 PX  C   8  -0.09444    -0.13844     0.09096    -0.06461     0.18732     0.06700
 PY  C   8   0.08629    -0.06050     0.17295    -0.00986    -0.12103     0.13100
 PZ  C   8  -0.00310    -0.00821    -0.00299     0.00529     0.01580    -0.00535
  
  S  C   9  -0.01407    -0.21823    -0.00007    -0.00022     0.01343    -0.02996
 PX  C   9  -0.00062    -0.05499    -0.11964     0.16074    -0.15085    -0.17047
 PY  C   9   0.01457     0.08569     0.19588     0.11602    -0.09591    -0.10276
 PZ  C   9   0.00062     0.00248    -0.01043     0.01746    -0.00833    -0.00752
  
  S  C  10   0.00212    -0.22001    -0.00711    -0.02172    -0.00158     0.01554
 PX  C  10   0.01397     0.06325     0.11073    -0.16072    -0.19127    -0.15791
 PY  C  10  -0.01801    -0.08021    -0.19379    -0.10046    -0.08507    -0.10578
 PZ  C  10   0.00191     0.00370    -0.00400    -0.00090    -0.01092     0.00462
  
  S  C  11  -0.11980     0.11815     0.07487    -0.20877     0.05908    -0.14438
 PX  C  11  -0.09104     0.13637    -0.05499     0.06922     0.21177     0.06949
 PY  C  11   0.06245     0.06297    -0.17735     0.06368    -0.08920     0.15270
 PZ  C  11   0.00295     0.01282    -0.01771     0.01037    -0.00205     0.03210
  
  S  H  12  -0.12172     0.06425     0.12637    -0.11664     0.14635    -0.14958
  
  S  C  13  -0.11221     0.10338     0.05020     0.19873     0.08383    -0.14378
 PX  C  13   0.02109     0.13186    -0.17653    -0.07848     0.00429     0.16611
 PY  C  13  -0.10427     0.10166     0.04008    -0.03852     0.22270     0.03013
 PZ  C  13   0.00016     0.01654    -0.01677    -0.00309     0.00418     0.02317
  
  S  H  14   0.14783     0.06635     0.09360     0.14984    -0.15825     0.10581
  
  S  H  15   0.06356     0.13435    -0.13683     0.15380    -0.00194    -0.22671
  
  S  H  16   0.20690    -0.08987    -0.19457    -0.09735     0.10603    -0.06196
  
  S  H  17   0.20038    -0.09856    -0.19222     0.05491     0.12024    -0.10053
  
  S  H  18   0.05954     0.13194    -0.11630    -0.19213    -0.02168    -0.13882
  
  S  H  19   0.14675     0.06025     0.10557    -0.07569    -0.17624     0.14810
  
  S  H  20  -0.12842     0.07445     0.09290     0.09122     0.17643    -0.10106
  
  S  C  21  -0.17451    -0.18591    -0.12084     0.11286    -0.10328    -0.01270
 PX  C  21  -0.09548    -0.00697    -0.14050    -0.15683    -0.20903     0.00784
 PY  C  21   0.16124    -0.01773     0.15788    -0.09527    -0.03872    -0.15937
 PZ  C  21   0.00008    -0.00662     0.00019     0.01942     0.00673     0.01513
  
  S  C  22   0.03167     0.14827     0.01666    -0.15987     0.04013    -0.00855
 PX  C  22  -0.09643     0.12875    -0.16112    -0.10596    -0.00786     0.23632
 PY  C  22   0.10750     0.20463     0.10444     0.04107     0.24907     0.03981
 PZ  C  22   0.00282    -0.02800     0.00853     0.00504    -0.02181    -0.02600
  
  S  C  23   0.00939     0.13093    -0.00871     0.16431     0.06183     0.00111
 PX  C  23   0.04542     0.23844     0.00461     0.01596     0.20532     0.15845
 PY  C  23  -0.15111    -0.00750    -0.20934     0.13104    -0.12009     0.19045
 PZ  C  23   0.00564    -0.03156     0.01451    -0.01086    -0.02391    -0.03746
  
  S  C  24  -0.16341    -0.18497    -0.09943    -0.12684    -0.11973    -0.02454
 PX  C  24   0.07447    -0.03310     0.05032     0.16819    -0.10422    -0.13639
 PY  C  24  -0.17197    -0.00051    -0.20404     0.09309    -0.13184     0.08076
 PZ  C  24   0.01327     0.00298     0.01360    -0.01817     0.01281     0.00874
  
  S  H  25  -0.20838    -0.08831    -0.19827     0.05153    -0.10861     0.09180
  
  S  H  26  -0.03905     0.16748    -0.09432    -0.15335     0.02803     0.17775
  
  S  H  27  -0.06430     0.13793    -0.12586     0.17184     0.02979     0.18566
  
  S  H  28  -0.20275    -0.08266    -0.18342    -0.05771    -0.10416     0.08324
  
  S  C  29   0.10021     0.08600     0.00186     0.10999     0.06496     0.15315
 PX  C  29  -0.08365    -0.16154     0.07786     0.15010     0.12930    -0.09329
 PY  C  29   0.22829    -0.08759     0.12441     0.02517    -0.10771     0.03118
 PZ  C  29   0.00762    -0.00572     0.00228     0.00407    -0.00595     0.02288
  
  S  C  30   0.12369     0.08635     0.01086    -0.09532     0.02800     0.15178
 PX  C  30   0.14760    -0.15511     0.16160    -0.08998    -0.03547    -0.02657
 PY  C  30  -0.17570    -0.08902     0.01605    -0.14883     0.13353    -0.09718
 PZ  C  30   0.00563    -0.00624     0.00550    -0.00712    -0.00073     0.01787




    ROOT NO.   19          20          21          22          23          24

           -18.46579   -17.33012   -16.83079   -16.74532   -15.86038   -15.46076
  
  
  S  C   1   0.15342     0.00002    -0.02263     0.10697     0.05445     0.04184
 PX  C   1  -0.05212     0.18111     0.04823    -0.00449     0.20572     0.05487
 PY  C   1  -0.10323    -0.21011    -0.00706    -0.05378     0.16109     0.13583
 PZ  C   1  -0.02027    -0.01723     0.00510     0.00264     0.03060     0.04891
  
  S  C   2  -0.14982    -0.01781     0.02949    -0.05086    -0.00563     0.03631
 PX  C   2  -0.11331    -0.20465    -0.02541    -0.07108    -0.22350    -0.04769
 PY  C   2   0.03852    -0.12539    -0.00180     0.28682    -0.02535     0.20190
 PZ  C   2   0.00817    -0.02302    -0.00143     0.03945    -0.00081     0.04469
  
  S  C   3   0.03970     0.02794     0.02993     0.23009    -0.06348    -0.01220
 PX  C   3   0.16047    -0.01238    -0.01638     0.01334     0.24410    -0.09740
 PY  C   3   0.04435     0.28836     0.03060    -0.07372    -0.01565    -0.13322
 PZ  C   3   0.02302     0.00286    -0.00082     0.01819     0.00286     0.01254
  
  S  C   4  -0.07816     0.05012    -0.00950    -0.22151    -0.09713    -0.03219
 PX  C   4  -0.13086     0.20490     0.03636     0.06292     0.12185     0.11424
 PY  C   4  -0.10293    -0.18113    -0.02837    -0.11787     0.19074     0.13133
 PZ  C   4   0.01879    -0.00442    -0.00756     0.01378    -0.02238     0.03518
  
  S  C   5   0.16896     0.00132    -0.03845     0.06311     0.00272     0.00170
 PX  C   5   0.01382    -0.19095    -0.02750    -0.20011    -0.15974    -0.10858
 PY  C   5   0.08803    -0.11491     0.00062     0.26238    -0.11936     0.24495
 PZ  C   5   0.01535     0.00497     0.00062     0.05440    -0.02176     0.06264
  
  S  C   6  -0.14337    -0.02595     0.01530    -0.11737     0.04735    -0.03256
 PX  C   6   0.17972    -0.04985    -0.06014     0.01385     0.22822    -0.02171
 PY  C   6  -0.01014     0.26351     0.02148    -0.05908     0.06628    -0.16303
 PZ  C   6  -0.01848     0.03034     0.00977     0.00558    -0.01145     0.02003
  
  S  C   7   0.10186     0.03606     0.01010    -0.05269     0.07800    -0.03129
 PX  C   7  -0.14433     0.03115     0.00713    -0.16182    -0.19059     0.08598
 PY  C   7  -0.12017     0.00434     0.14842     0.20694    -0.07147    -0.10350
 PZ  C   7  -0.00338     0.00076     0.00739     0.00848    -0.02089     0.00375
  
  S  C   8  -0.07131     0.02890    -0.00115     0.04896     0.07802     0.01116
 PX  C   8   0.18389     0.10976    -0.11679    -0.03978    -0.14901     0.09403
 PY  C   8   0.08453    -0.01830     0.08937     0.27789    -0.07901    -0.23676
 PZ  C   8   0.01809     0.00305    -0.01774    -0.01062    -0.02919     0.03908
  
  S  C   9   0.14366    -0.08892    -0.15134    -0.10678    -0.06938     0.08796
 PX  C   9  -0.06073    -0.14598     0.04379    -0.02726     0.07904    -0.08003
 PY  C   9   0.06353     0.23678    -0.02225    -0.06128    -0.11264    -0.00494
 PZ  C   9  -0.00217    -0.00155    -0.00476    -0.00372    -0.02064     0.00704
  
  S  C  10  -0.14251    -0.13689     0.12381     0.10985    -0.06948    -0.09098
 PX  C  10  -0.04577     0.14775     0.02459     0.05518    -0.03449    -0.03007
 PY  C  10   0.08152    -0.20815    -0.08882    -0.03910     0.13711     0.02335
 PZ  C  10   0.00268     0.00514     0.00813     0.00700    -0.02133    -0.01348
  
  S  C  11   0.08617     0.05279    -0.03117     0.01856     0.08424     0.01010
 PX  C  11   0.16969    -0.07171    -0.10629    -0.11055     0.10842     0.06823
 PY  C  11   0.08625    -0.06031     0.24910    -0.01187     0.09986    -0.23251
 PZ  C  11   0.01501     0.00038     0.02576     0.00082    -0.02122    -0.04719
  
  S  H  12   0.04246     0.05076    -0.25774    -0.03098     0.01601     0.21588
  
  S  C  13  -0.12077     0.03595     0.05445    -0.03097     0.07210     0.01116
 PX  C  13  -0.12372    -0.02860    -0.14381     0.04901     0.15260     0.13411
 PY  C  13  -0.12201    -0.06964     0.21499     0.09785     0.05099    -0.07986
 PZ  C  13  -0.01229     0.00384    -0.02539     0.00635    -0.01675     0.01417
  
  S  H  14   0.07905     0.03018    -0.11179    -0.25634     0.02094     0.10547
  
  S  H  15   0.17043     0.06694    -0.02920     0.09276    -0.19001    -0.11202
  
  S  H  16  -0.14244     0.00027     0.00141    -0.27882    -0.07383    -0.15820
  
  S  H  17   0.14343    -0.01065    -0.00508     0.31934    -0.02259     0.23669
  
  S  H  18  -0.21633     0.04102     0.06025    -0.06911    -0.16829     0.00032
  
  S  H  19  -0.04094    -0.03667     0.12127     0.26224     0.04280    -0.21652
  
  S  H  20  -0.10007    -0.03056     0.26225     0.04386     0.02507    -0.11140
  
  S  C  21  -0.16144    -0.00873    -0.04402     0.05200     0.00524     0.01299
 PX  C  21   0.03844     0.21646    -0.16963     0.06949     0.13210    -0.09264
 PY  C  21   0.06873     0.09803     0.30079    -0.07430     0.11308     0.26047
 PZ  C  21  -0.01893    -0.01129    -0.03033     0.01318    -0.05120    -0.04433
  
  S  C  22   0.15868    -0.02070     0.11791    -0.06859     0.03974     0.03456
 PX  C  22   0.19401     0.03539    -0.02571    -0.04083    -0.23126    -0.08474
 PY  C  22   0.00752    -0.23482    -0.10444    -0.00625    -0.05215    -0.16658
 PZ  C  22  -0.01825     0.02026    -0.00535     0.00905     0.01116    -0.01015
  
  S  C  23  -0.17078    -0.00207    -0.10873     0.06589     0.06288    -0.03644
 PX  C  23  -0.06316    -0.16394    -0.00895     0.03310    -0.17166     0.09556
 PY  C  23  -0.12845     0.16883    -0.02018     0.06825    -0.16815     0.13988
 PZ  C  23   0.02311     0.01740    -0.00604    -0.01033     0.02484    -0.04856
  
  S  C  24   0.18351    -0.02520     0.03940    -0.06514    -0.00770    -0.05207
 PX  C  24  -0.12775     0.18467    -0.06854     0.03037     0.19337    -0.09118
 PY  C  24   0.03109     0.07884     0.32326    -0.09512    -0.00611     0.19883
 PZ  C  24   0.01802    -0.01292    -0.02292     0.00165    -0.04804    -0.02428
  
  S  H  25  -0.11221     0.02434    -0.32019     0.11059    -0.02007    -0.22745
  
  S  H  26   0.23280     0.00598     0.03368    -0.06965    -0.18712    -0.06164
  
  S  H  27  -0.20263     0.05267    -0.06955     0.09765    -0.16847     0.13709
  
  S  H  28   0.15671    -0.02905     0.29784    -0.11403    -0.08498     0.16462
  
  S  C  29   0.05402     0.00103     0.19338    -0.04304    -0.10764    -0.00277
 PX  C  29  -0.14385    -0.21553     0.04296    -0.02053    -0.09452     0.10175
 PY  C  29  -0.11475     0.18522    -0.06606     0.05108    -0.19937     0.13208
 PZ  C  29  -0.00721     0.01626    -0.02011     0.01250    -0.07172    -0.02970
  
  S  C  30  -0.02633     0.06289    -0.22210     0.06384    -0.08396     0.03276
 PX  C  30   0.15728     0.03185     0.00414    -0.00313    -0.20653    -0.11868
 PY  C  30   0.06988    -0.25171    -0.12923     0.00659     0.04345    -0.11617
 PZ  C  30   0.01552     0.00781    -0.01555     0.00463    -0.07199    -0.02231




    ROOT NO.   25          26          27          28          29          30

           -15.04726   -14.86931   -14.63151   -14.40860   -13.80193   -13.38923
  
  
  S  C   1   0.00642    -0.00550    -0.04045    -0.00013    -0.04366    -0.00915
 PX  C   1  -0.21517    -0.19649     0.06256    -0.00762    -0.10476     0.11033
 PY  C   1  -0.07651     0.20078     0.10173    -0.03301    -0.18851    -0.02514
 PZ  C   1  -0.09959     0.01940     0.03007     0.10046     0.00870     0.24051
  
  S  C   2  -0.07662     0.03261     0.06180    -0.01018     0.01098     0.01538
 PX  C   2   0.18033     0.21169    -0.02575    -0.01365     0.12592    -0.13070
 PY  C   2  -0.14871    -0.07421    -0.07173    -0.08542     0.11326    -0.07781
 PZ  C   2  -0.08151     0.01553    -0.00475     0.13746     0.05737     0.23482
  
  S  C   3   0.03074    -0.05964     0.00345     0.00755    -0.00718    -0.01784
 PX  C   3   0.15727     0.05487     0.06672     0.09657    -0.25967     0.10330
 PY  C   3   0.00959    -0.12732     0.02366     0.01979    -0.05222     0.04003
 PZ  C   3  -0.08014     0.03611    -0.00171     0.24289     0.06266     0.27280
  
  S  C   4  -0.05667    -0.03285    -0.01471    -0.01619    -0.00519     0.02566
 PX  C   4  -0.13149    -0.11574    -0.08931    -0.02552    -0.14352    -0.10493
 PY  C   4  -0.06196     0.09891    -0.01564    -0.00170    -0.16146    -0.01647
 PZ  C   4  -0.09032     0.05771    -0.00930     0.22938     0.07948     0.25184
  
  S  C   5   0.08906     0.07157    -0.04740     0.00377     0.01348    -0.02193
 PX  C   5   0.05542     0.10126     0.10408     0.02233     0.12693     0.13652
 PY  C   5  -0.22686     0.08043     0.05016    -0.11967    -0.00318    -0.02968
 PZ  C   5  -0.10175     0.02107    -0.00218     0.11108     0.05358     0.20519
  
  S  C   6   0.01020     0.01934     0.03828     0.01630    -0.05503     0.00386
 PX  C   6   0.22732     0.15238    -0.09281     0.06776    -0.14605    -0.09001
 PY  C   6   0.11302    -0.20975    -0.09088     0.05320     0.04438    -0.02163
 PZ  C   6  -0.08853    -0.02761     0.01021     0.09692     0.05764     0.23013
  
  S  C   7  -0.04771    -0.02476     0.04982     0.00332     0.01279     0.02686
 PX  C   7  -0.18006    -0.03560    -0.03560    -0.12338     0.25226    -0.11201
 PY  C   7   0.05197     0.14550     0.32474     0.00801     0.02975    -0.05657
 PZ  C   7  -0.08632     0.04184    -0.00399     0.23397     0.06830     0.12026
  
  S  C   8   0.04063    -0.03246    -0.05598     0.01883     0.03401    -0.03387
 PX  C   8   0.06119     0.17243    -0.20399    -0.05008     0.16859    -0.01166
 PY  C   8   0.15562    -0.12249     0.17380     0.06752     0.15206     0.06048
 PZ  C   8  -0.08526     0.07222    -0.02885     0.23092     0.05934     0.12056
  
  S  C   9   0.00614    -0.02216    -0.01810     0.00239     0.01826     0.02644
 PX  C   9  -0.05197    -0.20688     0.22622     0.01221    -0.17336     0.03104
 PY  C   9  -0.08178    -0.08304     0.10321     0.00247    -0.11507    -0.03272
 PZ  C   9  -0.10522     0.05004     0.00473     0.32824     0.03071    -0.00607
  
  S  C  10   0.00931     0.01192    -0.01810    -0.00658    -0.02028     0.00182
 PX  C  10   0.02767    -0.07144    -0.30554     0.02381    -0.20533     0.03043
 PY  C  10   0.06706    -0.08215    -0.14826     0.02867    -0.07292     0.09033
 PZ  C  10  -0.10488     0.05768    -0.03129     0.31773     0.04058    -0.00069
  
  S  C  11   0.04650     0.05503    -0.03452     0.02777    -0.00636     0.03074
 PX  C  11  -0.01985     0.06395     0.28732    -0.02858     0.21517    -0.01153
 PY  C  11  -0.15967     0.03503    -0.21840    -0.09525     0.14475     0.03478
 PZ  C  11  -0.10611     0.06020    -0.03919     0.23529     0.01914    -0.12651
  
  S  H  12   0.14193     0.01310     0.27312     0.05461    -0.02760    -0.01070
  
  S  C  13  -0.05735     0.02877     0.06908    -0.01651    -0.02401    -0.03900
 PX  C  13   0.14444    -0.09671     0.02831     0.02963     0.27740    -0.08410
 PY  C  13   0.00357     0.27259    -0.22628    -0.06119     0.03412     0.04064
 PZ  C  13  -0.05903     0.03853    -0.00547     0.26846     0.02320    -0.13203
  
  S  H  14  -0.12774    -0.13265    -0.24017    -0.05891     0.08917     0.00672
  
  S  H  15   0.17742    -0.06400    -0.13482     0.01632     0.18397    -0.07341
  
  S  H  16   0.16254     0.16296     0.06839     0.03708    -0.03288    -0.01891
  
  S  H  17  -0.16434     0.05644    -0.02302    -0.08459    -0.04014    -0.06679
  
  S  H  18  -0.20416    -0.14047     0.10070    -0.04247     0.11684     0.10986
  
  S  H  19   0.11921    -0.17345     0.19231     0.06497     0.06443     0.02956
  
  S  H  20  -0.07227     0.25269    -0.16053    -0.07158    -0.09508     0.05230
  
  S  C  21   0.04546    -0.06245    -0.07259     0.03149    -0.01496     0.00171
 PX  C  21  -0.03070     0.17503    -0.04292    -0.01461     0.13323     0.00333
 PY  C  21   0.18927     0.08064     0.01925     0.08290     0.09260     0.04665
 PZ  C  21  -0.07082     0.01243    -0.01992     0.15055    -0.08157    -0.21546
  
  S  C  22  -0.00473    -0.01035     0.03748     0.01058     0.05476    -0.02741
 PX  C  22  -0.13504     0.09432     0.14948    -0.10069    -0.18823     0.02685
 PY  C  22  -0.14272    -0.19264    -0.03407     0.00309    -0.04128    -0.13210
 PZ  C  22  -0.03129     0.03259    -0.01778     0.12872    -0.02842    -0.19368
  
  S  C  23   0.00206     0.01728    -0.04486     0.00207     0.05485    -0.01040
 PX  C  23   0.15542    -0.19462    -0.16288     0.11730    -0.09228     0.01994
 PY  C  23   0.15007     0.14637    -0.00133    -0.00148    -0.12245     0.15358
 PZ  C  23  -0.08781     0.04327     0.02827     0.10348    -0.02223    -0.21478
  
  S  C  24  -0.07561    -0.04713     0.03884     0.00419    -0.02579    -0.02541
 PX  C  24  -0.13833     0.22557     0.13384    -0.07602     0.11323    -0.08676
 PY  C  24   0.07447    -0.07115     0.06122     0.06570     0.06888    -0.16745
 PZ  C  24  -0.05066     0.01204    -0.01406     0.16280    -0.07397    -0.18657
  
  S  H  25  -0.13397    -0.00800    -0.06602    -0.04710    -0.02279    -0.04444
  
  S  H  26  -0.12523     0.06785     0.15603    -0.09785    -0.15593     0.02456
  
  S  H  27   0.19818     0.03376    -0.10020     0.03750    -0.11300     0.16383
  
  S  H  28   0.08198    -0.17047     0.00364     0.07405    -0.00993    -0.09551
  
  S  C  29  -0.04845     0.05390     0.00065    -0.02440    -0.02445    -0.01930
 PX  C  29   0.07127    -0.20619     0.01904     0.05339    -0.14129    -0.00519
 PY  C  29   0.10293     0.04154     0.06973    -0.00102    -0.19895    -0.00339
 PZ  C  29  -0.08878     0.05553    -0.01989     0.26001    -0.07783    -0.24512
  
  S  C  30   0.06262     0.01688     0.02907     0.01720     0.01021     0.01397
 PX  C  30  -0.07413     0.09110    -0.04852    -0.07141    -0.26331     0.14565
 PY  C  30  -0.02515    -0.12332    -0.10031     0.01384    -0.01076     0.11261
 PZ  C  30  -0.08025     0.05163    -0.01843     0.26699    -0.08054    -0.22590




    ROOT NO.   31          32          33          34          35          36

           -13.17151   -12.84427   -12.27180   -11.87871   -11.59939   -11.44594
  
  
  S  C   1   0.00430     0.01445    -0.00078    -0.00318     0.00053    -0.00883
 PX  C   1   0.08883    -0.17276    -0.12320    -0.02184     0.00628    -0.16358
 PY  C   1  -0.22082    -0.12987     0.13394     0.04230     0.08543    -0.03647
 PZ  C   1  -0.08523     0.05686    -0.04879     0.23807    -0.17030     0.14362
  
  S  C   2  -0.01373    -0.01296    -0.02452    -0.02388    -0.03296     0.01106
 PX  C   2  -0.06722     0.16319     0.10044    -0.02421    -0.01108     0.15452
 PY  C   2   0.21903     0.10775    -0.15152    -0.15775    -0.08797     0.02021
 PZ  C   2  -0.03822     0.13607    -0.06079     0.15265    -0.15083     0.14562
  
  S  C   3   0.01075     0.02865     0.00562    -0.00493    -0.00448    -0.01318
 PX  C   3  -0.04127    -0.08455    -0.14031    -0.01834    -0.09291    -0.20729
 PY  C   3  -0.15100    -0.15007     0.20967     0.18707     0.18498    -0.00105
 PZ  C   3  -0.06699     0.15030    -0.01082     0.05667    -0.03257     0.06293
  
  S  C   4  -0.00114    -0.03617     0.01003     0.00095     0.01161     0.01800
 PX  C   4  -0.04802     0.15228     0.20380    -0.01019     0.08604     0.23477
 PY  C   4   0.10195     0.13659    -0.18072    -0.20668    -0.18294     0.02958
 PZ  C   4  -0.08203     0.13770     0.00424     0.04784    -0.01159     0.02190
  
  S  C   5  -0.01442     0.02342    -0.02117    -0.00346    -0.03077    -0.03095
 PX  C   5   0.02978    -0.17785    -0.18909     0.02253    -0.07209    -0.21719
 PY  C   5  -0.13639    -0.18176     0.08783     0.05587     0.08269    -0.07175
 PZ  C   5  -0.08963     0.08268     0.00642     0.17859    -0.08447     0.10733
  
  S  C   6  -0.02369    -0.00121     0.01627    -0.01011     0.00752     0.01281
 PX  C   6  -0.10734     0.20772     0.13434     0.01312    -0.00467     0.16988
 PY  C   6   0.21543     0.15835    -0.09968    -0.10657    -0.05084     0.04841
 PZ  C   6  -0.03689     0.07060    -0.06539     0.22219    -0.16548     0.13256
  
  S  C   7  -0.01491    -0.05901    -0.02145    -0.04948    -0.04845    -0.00829
 PX  C   7   0.01686     0.04069     0.12675    -0.00825     0.05400     0.20238
 PY  C   7  -0.12935     0.01363    -0.05035    -0.18115    -0.19665     0.03908
 PZ  C   7  -0.02308     0.10026     0.04552    -0.10872     0.09159    -0.00468
  
  S  C   8   0.00162     0.07203     0.00996    -0.00397    -0.04191    -0.02325
 PX  C   8  -0.12088    -0.08376    -0.04515     0.07413    -0.08653    -0.23704
 PY  C   8  -0.00736    -0.12618     0.07218     0.15015     0.14190    -0.05321
 PZ  C   8  -0.04401     0.08976     0.03415    -0.11035     0.08550    -0.08316
  
  S  C   9   0.03510    -0.05020    -0.01382     0.00045     0.01889    -0.01096
 PX  C   9   0.12430     0.01658     0.04445    -0.03474     0.10231     0.25828
 PY  C   9  -0.21254    -0.00915     0.07364    -0.21382    -0.25524     0.03249
 PZ  C   9   0.02293     0.04279     0.08979    -0.23886     0.20611    -0.11541
  
  S  C  10   0.02599     0.04784     0.00997     0.00654    -0.00415    -0.01377
 PX  C  10  -0.12387     0.04654     0.04844     0.04079    -0.11295    -0.22404
 PY  C  10   0.21374    -0.02553    -0.03640     0.20736     0.26224    -0.01583
 PZ  C  10   0.01728     0.03913     0.08659    -0.22470     0.19262    -0.10122
  
  S  C  11  -0.00481    -0.06920     0.00081    -0.02294    -0.03768    -0.01458
 PX  C  11   0.11123    -0.09495    -0.03735    -0.04791     0.08083     0.22263
 PY  C  11  -0.06492    -0.12204     0.12520    -0.09101    -0.15023     0.04944
 PZ  C  11   0.05021    -0.06574     0.05181    -0.10306     0.06121    -0.02993
  
  S  H  12   0.09164     0.03529    -0.13858     0.06427     0.16585     0.06369
  
  S  C  13   0.00619     0.06690     0.03086    -0.02286    -0.05229     0.00512
 PX  C  13  -0.03465     0.07006     0.10086     0.13799    -0.07869    -0.21728
 PY  C  13   0.13685     0.01160    -0.13409     0.14943     0.17894    -0.05092
 PZ  C  13   0.05764    -0.03949     0.05872    -0.09021     0.08703    -0.10005
  
  S  H  14   0.10522    -0.02439     0.09356     0.14672     0.19296     0.06476
  
  S  H  15   0.15067     0.20067    -0.04080    -0.05844    -0.05328     0.10228
  
  S  H  16  -0.21474    -0.04091     0.18255     0.10432     0.08766     0.04832
  
  S  H  17  -0.14863    -0.04955     0.16211     0.07064     0.08930     0.04598
  
  S  H  18   0.09693    -0.18893    -0.13483     0.00293    -0.00901    -0.15055
  
  S  H  19   0.04632    -0.04485     0.08764     0.11565     0.15759     0.05984
  
  S  H  20   0.12713     0.01377    -0.15753     0.07465     0.18865     0.06371
  
  S  C  21  -0.02843    -0.00589     0.02672     0.00765    -0.02806    -0.03948
 PX  C  21  -0.08028    -0.18872    -0.17394    -0.08298     0.06074     0.19654
 PY  C  21   0.15414    -0.16910     0.12045    -0.02013    -0.08064     0.05946
 PZ  C  21   0.06504    -0.06842    -0.05672     0.20669    -0.13443     0.04031
  
  S  C  22  -0.01181    -0.00850    -0.00476    -0.00586    -0.00172     0.01317
 PX  C  22   0.18751     0.18885     0.13201     0.09270    -0.03559    -0.12038
 PY  C  22  -0.21145     0.13862    -0.15494     0.05515     0.05036    -0.04808
 PZ  C  22   0.07263    -0.12027    -0.05657     0.23435    -0.19319     0.09997
  
  S  C  23  -0.02211    -0.01568    -0.01343     0.00461     0.00481    -0.00916
 PX  C  23  -0.13106    -0.19568    -0.12097    -0.06162    -0.01574     0.16475
 PY  C  23   0.24272    -0.10969     0.16276    -0.01308    -0.07477     0.03335
 PZ  C  23   0.08286    -0.05743    -0.03505     0.24682    -0.19114     0.06324
  
  S  C  24  -0.00696     0.00172     0.03305    -0.01328    -0.04108     0.02111
 PX  C  24   0.12843     0.17299     0.06968     0.13154    -0.00736    -0.15560
 PY  C  24  -0.16086     0.11752    -0.19994     0.09436     0.08222    -0.05774
 PZ  C  24   0.08627    -0.13718    -0.02470     0.15011    -0.15303     0.10215
  
  S  H  25  -0.17640     0.03801    -0.19261    -0.01168     0.09271     0.04154
  
  S  H  26   0.16300     0.20107     0.12832     0.07609    -0.01630    -0.13197
  
  S  H  27   0.12002    -0.18629     0.07863    -0.07681    -0.04093     0.10175
  
  S  H  28  -0.20298     0.03175    -0.20313     0.00279     0.08304     0.03369
  
  S  C  29   0.02383     0.02561    -0.00836     0.00631     0.00270     0.01263
 PX  C  29   0.08259     0.16156     0.18864     0.09217    -0.08290    -0.20903
 PY  C  29  -0.03857     0.14621    -0.23627     0.08624     0.18260    -0.03397
 PZ  C  29   0.09772    -0.10347    -0.03025     0.07445    -0.01908     0.00960
  
  S  C  30   0.00246    -0.03454    -0.00400     0.00064    -0.00545    -0.01348
 PX  C  30   0.03353    -0.08581    -0.13438    -0.11400     0.11314     0.22232
 PY  C  30   0.08848    -0.14822     0.26406    -0.10244    -0.16763     0.02908
 PZ  C  30   0.10970    -0.14006    -0.01309     0.04414    -0.02552     0.03370




    ROOT NO.   37          38          39          40          41          42

           -10.56174    -9.80956    -9.64222    -8.26959    -8.07429    -6.69037
  
  
  S  C   1  -0.00245     0.00001     0.00559     0.00740     0.00187    -0.00469
 PX  C   1  -0.00274     0.03860     0.00872     0.01775    -0.02205    -0.01290
 PY  C   1  -0.00279     0.04752     0.01117     0.02728    -0.03068    -0.02803
 PZ  C   1   0.07544    -0.34576    -0.12986    -0.21551     0.24495     0.21190
  
  S  C   2   0.01545     0.00174    -0.02626    -0.02738    -0.01125     0.01617
 PX  C   2  -0.00614    -0.01000     0.00715     0.00542     0.00532    -0.00855
 PY  C   2  -0.02680     0.01071     0.04104     0.03755     0.00462    -0.02472
 PZ  C   2   0.17947    -0.11615    -0.31578    -0.34644    -0.04504     0.23076
  
  S  C   3  -0.00439    -0.00491     0.00477    -0.00248     0.00642     0.01219
 PX  C   3  -0.00409    -0.02330     0.01667     0.01395     0.02141     0.00802
 PY  C   3   0.00365     0.00090    -0.01088    -0.01701     0.00487     0.01788
 PZ  C   3   0.19637     0.25406    -0.26001    -0.05088    -0.33365    -0.16102
  
  S  C   4   0.00488     0.00037    -0.00522    -0.00281    -0.00140    -0.00294
 PX  C   4  -0.01048     0.01392     0.00398    -0.01086    -0.01313     0.00784
 PY  C   4  -0.00764    -0.00694     0.01814     0.01668     0.00155    -0.01243
 PZ  C   4  -0.22257     0.27904     0.24111     0.07559    -0.34875     0.10312
  
  S  C   5   0.01112    -0.01230    -0.01459    -0.01011     0.00973     0.00770
 PX  C   5  -0.00203    -0.00580     0.01403     0.02486     0.00142    -0.01505
 PY  C   5   0.03974     0.01923    -0.05722    -0.04402    -0.00320     0.02603
 PZ  C   5  -0.19633    -0.08935     0.34639     0.35691     0.00826    -0.25472
  
  S  C   6  -0.00287     0.01320     0.00118    -0.00355    -0.01185     0.00547
 PX  C   6  -0.01737    -0.03995     0.02559     0.01652     0.02683    -0.01139
 PY  C   6  -0.00733     0.02335    -0.00183    -0.01491    -0.02312     0.01595
 PZ  C   6  -0.09653    -0.33196     0.20730     0.21696     0.27767    -0.17232
  
  S  C   7   0.00454     0.00988    -0.00172     0.00720     0.00119    -0.02022
 PX  C   7  -0.01874    -0.00030     0.00675    -0.02283    -0.00550     0.01881
 PY  C   7  -0.01188    -0.00471     0.01254    -0.00686    -0.00104     0.00407
 PZ  C   7   0.32029     0.20996    -0.23954     0.20824     0.04091    -0.37713
  
  S  C   8  -0.00386    -0.00044     0.00403     0.00899    -0.00226    -0.00448
 PX  C   8   0.03904    -0.02205    -0.03752     0.01321     0.01079    -0.02438
 PY  C   8  -0.01296     0.01161     0.00385    -0.01575     0.00049     0.02324
 PZ  C   8  -0.32353     0.22154     0.22201    -0.18084    -0.04004     0.38369
  
  S  C   9   0.01152    -0.00380     0.00189    -0.00582     0.00957     0.00047
 PX  C   9   0.00336     0.00723     0.02102     0.00934    -0.02878    -0.00405
 PY  C   9   0.00607    -0.00055     0.00753    -0.00262    -0.00684    -0.01087
 PZ  C   9  -0.24894    -0.00729     0.01774    -0.23612     0.35012     0.04571
  
  S  C  10  -0.01099    -0.00470    -0.00384    -0.00020    -0.00223     0.00366
 PX  C  10  -0.00640    -0.00939    -0.01427     0.00164    -0.00910    -0.00245
 PY  C  10   0.00116     0.00040    -0.00126     0.00412    -0.00342     0.00521
 PZ  C  10   0.27892     0.01030    -0.03236     0.22692     0.36809     0.01703
  
  S  C  11   0.00698     0.00103     0.00560    -0.00433     0.00251    -0.00597
 PX  C  11  -0.00970     0.01574     0.00932    -0.01578     0.00049    -0.01263
 PY  C  11  -0.05401     0.02480    -0.01917    -0.04003    -0.00007    -0.04860
 PZ  C  11   0.35510    -0.19606     0.19520     0.23089    -0.04135     0.36782
  
  S  H  12   0.01328     0.00530     0.00573     0.00726     0.00729     0.00461
  
  S  C  13   0.00646     0.00044     0.00434     0.00993    -0.00836     0.00871
 PX  C  13   0.04758     0.01359     0.01053     0.03026    -0.00685     0.04270
 PY  C  13  -0.00976    -0.00041    -0.01555     0.00385     0.00736     0.00226
 PZ  C  13  -0.32064    -0.23570    -0.16349    -0.25107     0.01531    -0.35589
  
  S  H  14  -0.00233     0.00461    -0.00380    -0.00757    -0.00307     0.00993
  
  S  H  15  -0.00903    -0.01749     0.00805     0.00074     0.00872    -0.00104
  
  S  H  16   0.00102     0.00045     0.00206     0.00932     0.00211    -0.01206
  
  S  H  17   0.00929     0.00289    -0.00933     0.00051     0.00064    -0.00775
  
  S  H  18   0.00516     0.01281    -0.00231     0.00693    -0.00347    -0.00743
  
  S  H  19  -0.01032     0.00712     0.00621    -0.00743    -0.00335     0.00918
  
  S  H  20  -0.01985     0.00407    -0.01277     0.00094     0.00948    -0.00391
  
  S  C  21  -0.00094     0.00098    -0.00639     0.00599     0.00304     0.00145
 PX  C  21   0.00562     0.01113     0.02643    -0.02432    -0.00602    -0.00961
 PY  C  21   0.02845     0.01535     0.04165    -0.03360    -0.00608    -0.01737
 PZ  C  21   0.21117     0.16571     0.32909    -0.33431     0.02725    -0.21119
  
  S  C  22   0.00207    -0.00912     0.00324    -0.00066    -0.01200     0.00090
 PX  C  22   0.01185     0.03072     0.01405    -0.02235     0.02928    -0.01736
 PY  C  22  -0.00199     0.01896    -0.00104    -0.00901     0.02086    -0.00982
 PZ  C  22   0.08783     0.36004     0.17049    -0.23112     0.26340    -0.15863
  
  S  C  23  -0.00098    -0.00932    -0.00095    -0.00244    -0.00858    -0.00459
 PX  C  23  -0.02625     0.07250    -0.03237     0.04106     0.05088     0.04010
 PY  C  23  -0.00548     0.03679    -0.01024     0.01675     0.02491     0.01793
 PZ  C  23  -0.13521     0.30681    -0.20959     0.22801     0.23263     0.20639
  
  S  C  24  -0.02397     0.00739    -0.02939     0.02941    -0.00095     0.01981
 PX  C  24  -0.01944    -0.02114    -0.03864     0.03077    -0.02067     0.01159
 PY  C  24  -0.01415    -0.00428    -0.02997     0.02506    -0.00644     0.01026
 PZ  C  24  -0.23937     0.09174    -0.34545     0.33716    -0.00690     0.20158
  
  S  H  25  -0.01078     0.00254    -0.00843     0.00319     0.00871     0.00125
  
  S  H  26   0.00582    -0.00028     0.00110    -0.00473     0.00874    -0.00596
  
  S  H  27   0.00354     0.02397     0.00875    -0.00180     0.01595     0.00408
  
  S  H  28   0.00657     0.00422     0.01091    -0.01344     0.00834    -0.01036
  
  S  C  29   0.01019    -0.00862     0.01640    -0.00791    -0.01709     0.00625
 PX  C  29   0.01106    -0.01085    -0.00641     0.00909    -0.00331     0.00095
 PY  C  29  -0.01085     0.01735    -0.02485     0.01794     0.03730     0.00405
 PZ  C  29   0.24317    -0.24281     0.24137    -0.01268    -0.34619     0.11978
  
  S  C  30  -0.00758    -0.01095    -0.01337     0.00327    -0.00973    -0.00892
 PX  C  30   0.00183     0.03407     0.02182    -0.01040     0.03792     0.00530
 PY  C  30   0.01021     0.00037     0.02178    -0.01677    -0.00820    -0.00673
 PZ  C  30  -0.21768    -0.28090    -0.20522     0.02105    -0.32546    -0.18637




    ROOT NO.   43          44          45          46          47          48

            -1.05195     0.22030     0.24954     1.18832     1.34414     1.81048
  
  
  S  C   1   0.00531    -0.00686    -0.01232     0.01909    -0.00497    -0.02330
 PX  C   1  -0.01163    -0.01034     0.00644    -0.00018    -0.01209    -0.00333
 PY  C   1  -0.02669    -0.03308     0.02564    -0.01116    -0.05105     0.00386
 PZ  C   1   0.23116     0.22868    -0.22414     0.12018     0.35697    -0.05765
  
  S  C   2  -0.02502     0.01202     0.03856    -0.04227    -0.00425     0.03907
 PX  C   2   0.00604    -0.00589    -0.00591     0.00594    -0.00355    -0.00134
 PY  C   2   0.02589    -0.00394    -0.03488     0.03327     0.01635    -0.01617
 PZ  C   2  -0.24742     0.05275     0.33575    -0.30363    -0.13513     0.17703
  
  S  C   3   0.01050     0.00635    -0.01973     0.02406     0.00876    -0.03328
 PX  C   3  -0.00507     0.01574     0.01264    -0.02229     0.00641     0.01346
 PY  C   3   0.00261     0.00915     0.00721    -0.01215     0.00043     0.00890
 PZ  C   3  -0.16072    -0.33634    -0.04934     0.26611    -0.23591    -0.22596
  
  S  C   4  -0.00742    -0.00087     0.00911    -0.02879    -0.00557     0.03244
 PX  C   4   0.00449     0.00443    -0.01233     0.01150     0.00077    -0.00922
 PY  C   4  -0.00242     0.00037    -0.00479     0.00209     0.00159    -0.00531
 PZ  C   4  -0.09519     0.34781    -0.10115     0.22767     0.30226    -0.23342
  
  S  C   5   0.01259     0.00152    -0.01811     0.03525     0.00290    -0.03734
 PX  C   5  -0.01900     0.00616     0.02410    -0.01438     0.01094     0.00551
 PY  C   5   0.02773    -0.00476    -0.03585     0.03591    -0.00831    -0.02275
 PZ  C   5  -0.26931     0.03681     0.34195    -0.33132     0.08426     0.20852
  
  S  C   6  -0.00849     0.01583     0.01062    -0.02161     0.01881     0.02303
 PX  C   6   0.01603    -0.02204    -0.01550     0.01111    -0.02741    -0.00211
 PY  C   6  -0.01534     0.02577     0.01660    -0.02205     0.02860     0.01457
 PZ  C   6   0.18101    -0.28648    -0.19139     0.19842    -0.33298    -0.11055
  
  S  C   7   0.01364    -0.00531     0.00364    -0.01780     0.00191     0.03513
 PX  C   7  -0.00889     0.00738     0.00323     0.01690    -0.00145    -0.02035
 PY  C   7  -0.00777     0.00119     0.00835     0.00844    -0.00451    -0.00796
 PZ  C   7   0.37843    -0.04173    -0.18859    -0.21406     0.17457     0.35044
  
  S  C   8   0.00328     0.00126     0.00384     0.01381     0.00322    -0.01554
 PX  C   8  -0.01864     0.00386     0.01894     0.01063     0.01434    -0.01669
 PY  C   8   0.01461    -0.00165    -0.00203    -0.01527    -0.00957     0.02142
 PZ  C   8   0.37547    -0.04446    -0.15680    -0.19193    -0.24076     0.32853
  
  S  C   9  -0.00690    -0.01026    -0.00774    -0.01430    -0.00288     0.00837
 PX  C   9  -0.00493     0.02419    -0.02329     0.00110     0.00271     0.01464
 PY  C   9  -0.00472     0.00562    -0.01080    -0.00835     0.00140    -0.00757
 PZ  C   9  -0.05356    -0.34313     0.24856    -0.00574     0.00680    -0.26499
  
  S  C  10  -0.00334     0.00053    -0.00773    -0.00255    -0.00151    -0.02140
 PX  C  10  -0.00062    -0.01673    -0.00925    -0.01182     0.00252     0.00558
 PY  C  10   0.00169    -0.00221    -0.00421    -0.00036     0.00068     0.01581
 PZ  C  10   0.00560     0.37768     0.20757    -0.00395    -0.00694    -0.29982
  
  S  C  11  -0.00087     0.01175     0.00536     0.01204    -0.01420     0.02312
 PX  C  11   0.01024     0.00717     0.00469    -0.00053    -0.00299    -0.00781
 PY  C  11   0.03885     0.00632     0.02580    -0.01940     0.01069    -0.03258
 PZ  C  11  -0.35197     0.02632    -0.21969     0.23834    -0.18685     0.33625
  
  S  H  12   0.00314    -0.00254     0.00589    -0.00057     0.01054    -0.01084
  
  S  C  13   0.01032    -0.00607     0.01972     0.02265     0.00920    -0.00145
 PX  C  13   0.03969    -0.01276     0.03592    -0.00443    -0.01091    -0.01675
 PY  C  13   0.00196    -0.00272     0.00190    -0.00152    -0.00247     0.00423
 PZ  C  13  -0.34210    -0.00258    -0.23373     0.19277     0.22439     0.32589
  
  S  H  14  -0.00558     0.00507     0.00093     0.01253    -0.00093    -0.02032
  
  S  H  15   0.00134    -0.00255     0.00384    -0.00840    -0.00443     0.01363
  
  S  H  16   0.01333    -0.01521    -0.02283     0.02947    -0.00400    -0.02543
  
  S  H  17  -0.00694    -0.00831     0.01369    -0.02272    -0.00735     0.02498
  
  S  H  18  -0.00007    -0.01457    -0.00118     0.00997    -0.01887    -0.01124
  
  S  H  19  -0.00204     0.00131     0.00098    -0.00242     0.00183     0.00583
  
  S  H  20  -0.00336     0.00525    -0.00175    -0.00087    -0.00571     0.00555
  
  S  C  21  -0.00170     0.01715    -0.00102     0.00183    -0.02354     0.00383
 PX  C  21   0.01413    -0.01959     0.01744     0.00744     0.02594     0.00006
 PY  C  21   0.01962    -0.00390     0.02989     0.02464     0.01529     0.01311
 PZ  C  21   0.20897    -0.00575     0.35742     0.31660     0.15900     0.17152
  
  S  C  22   0.00841    -0.01220     0.00719    -0.00043     0.01806    -0.00295
 PX  C  22  -0.01558     0.02604    -0.02262    -0.01355    -0.03532    -0.00811
 PY  C  22  -0.01257     0.02059    -0.01387    -0.00047    -0.02708     0.00331
 PZ  C  22  -0.16992     0.24283    -0.25426    -0.13872    -0.35015    -0.07079
  
  S  C  23  -0.00043     0.00916    -0.01715    -0.03084    -0.01406    -0.02370
 PX  C  23  -0.03035    -0.04176    -0.02251    -0.01395     0.04797    -0.00200
 PY  C  23  -0.01519    -0.02274    -0.01610    -0.01789     0.02993    -0.00939
 PZ  C  23  -0.20507    -0.24487    -0.23778    -0.22962     0.30866    -0.10169
  
  S  C  24   0.02241    -0.01457     0.05683     0.06913     0.01312     0.04222
 PX  C  24   0.02288     0.01137     0.02644     0.02020    -0.01691     0.01096
 PY  C  24   0.01577     0.01316     0.01888     0.01585    -0.02075     0.00967
 PZ  C  24   0.19852     0.00944     0.35930     0.34970    -0.08292     0.18963
  
  S  H  25  -0.00453    -0.00541     0.00162     0.00921     0.01106     0.00732
  
  S  H  26  -0.00524     0.01275    -0.00139     0.00785    -0.01427     0.00806
  
  S  H  27  -0.00436    -0.00718     0.00852     0.02127     0.00970     0.01751
  
  S  H  28  -0.01761     0.00841    -0.03515    -0.03848    -0.00564    -0.02328
  
  S  C  29   0.00544    -0.04458     0.00021    -0.01322     0.04568    -0.01665
 PX  C  29   0.00095     0.00741    -0.00398    -0.00800    -0.00748    -0.00330
 PY  C  29  -0.01779     0.01307     0.00206     0.02949    -0.00652     0.02784
 PZ  C  29   0.13349    -0.34528    -0.00978    -0.27546     0.24483    -0.21472
  
  S  C  30  -0.00360     0.03610    -0.03230    -0.04355    -0.04121    -0.02253
 PX  C  30  -0.02506    -0.01440    -0.00999     0.00796     0.01409     0.00660
 PY  C  30  -0.00158    -0.01242    -0.01446    -0.02778     0.01664    -0.02205
 PZ  C  30   0.17781     0.33153    -0.05479    -0.21687    -0.29299    -0.21369




    ROOT NO.   49          50          51          52          53          54

             2.34252     2.44218     2.76946     3.07617     3.29751     3.36408
  
  
  S  C   1   0.05051    -0.10811     0.19265    -0.05645     0.26644    -0.11824
 PX  C   1   0.01090    -0.02475     0.02544     0.02923    -0.00584    -0.06436
 PY  C   1  -0.03026    -0.04673     0.00155    -0.06250     0.01370     0.04122
 PZ  C   1   0.23059     0.23165     0.10999     0.22297     0.01654     0.06419
  
  S  C   2  -0.09144     0.12635    -0.23902    -0.02248    -0.19553     0.17861
 PX  C   2  -0.01649     0.02146    -0.01299    -0.02375     0.05660     0.01578
 PY  C   2  -0.01048     0.07624    -0.05143     0.02910    -0.00397     0.04134
 PZ  C   2  -0.15183    -0.20665    -0.06164    -0.24935     0.01524    -0.07717
  
  S  C   3   0.12473    -0.21735     0.29125    -0.00263     0.09273    -0.15572
 PX  C   3   0.00398    -0.01316    -0.05012     0.04416    -0.07019    -0.10634
 PY  C   3   0.00886    -0.04836     0.02657    -0.06169    -0.04896     0.11924
 PZ  C   3   0.03814     0.09018     0.07304     0.30599     0.01635     0.06582
  
  S  C   4  -0.11134     0.21606    -0.27104     0.13151    -0.01556    -0.21411
 PX  C   4  -0.02533     0.01328     0.00036    -0.06306     0.06704     0.05276
 PY  C   4   0.00914    -0.01503     0.06211     0.01257     0.08567    -0.11993
 PZ  C   4  -0.04502    -0.02715    -0.10861    -0.28390    -0.03062    -0.07006
  
  S  C   5   0.05972    -0.16040     0.21021    -0.18706     0.12747     0.21078
 PX  C   5   0.04336    -0.04416     0.06303    -0.00553    -0.04338     0.06739
 PY  C   5  -0.01998    -0.00797    -0.03007    -0.01597    -0.04496     0.00647
 PZ  C   5   0.17530     0.11846     0.14052     0.20485     0.04097     0.06233
  
  S  C   6  -0.02839     0.11367    -0.16126     0.13776    -0.20615    -0.08194
 PX  C   6  -0.03542     0.01699    -0.05849     0.00906    -0.03724    -0.01679
 PY  C   6   0.01650     0.03284     0.00793     0.05249     0.04872    -0.09201
 PZ  C   6  -0.24106    -0.19096    -0.14249    -0.20001    -0.03302    -0.06889
  
  S  C   7  -0.11520     0.20673    -0.15746    -0.08720     0.07932     0.25461
 PX  C   7   0.00313    -0.02325     0.08811    -0.03347     0.09047     0.00272
 PY  C   7  -0.03228     0.04131     0.00517    -0.03352     0.06508     0.04006
 PZ  C   7   0.11864     0.04191     0.02745    -0.16346    -0.01430    -0.03288
  
  S  C   8   0.11397    -0.19314     0.14636    -0.03915    -0.20014     0.25170
 PX  C   8   0.02807    -0.01361    -0.05655     0.03422    -0.11948     0.00432
 PY  C   8  -0.02055     0.03307    -0.05886     0.03899    -0.02805    -0.02798
 PZ  C   8  -0.10371    -0.11632     0.01667     0.15614     0.01573     0.02685
  
  S  C   9  -0.13267     0.21073    -0.03269    -0.04544     0.35236    -0.17194
 PX  C   9  -0.03039    -0.01170     0.05822    -0.04372     0.01623     0.07645
 PY  C   9  -0.00206    -0.02802     0.03813     0.04070    -0.03227    -0.13872
 PZ  C   9   0.24313     0.24233     0.08587    -0.04343    -0.01718     0.03986
  
  S  C  10   0.14464    -0.22921     0.04246     0.15845    -0.27121    -0.22447
 PX  C  10   0.01726     0.01676    -0.07067     0.02389     0.04067    -0.06007
 PY  C  10   0.01296    -0.00723    -0.03548    -0.00849    -0.09765     0.13549
 PZ  C  10  -0.23297    -0.20052    -0.10141     0.05261     0.01351    -0.02521
  
  S  C  11  -0.15966     0.20349     0.10049    -0.14930     0.11200     0.24027
 PX  C  11   0.00521    -0.03844     0.07181     0.02802    -0.10683    -0.05297
 PY  C  11  -0.04184     0.01808     0.04777    -0.02216    -0.03911    -0.00429
 PZ  C  11   0.06339     0.09260     0.10285     0.10441    -0.00161     0.05512
  
  S  H  12   0.08395    -0.11335    -0.06585     0.07603    -0.08709    -0.11309
  
  S  C  13   0.14218    -0.16347    -0.08517     0.01793    -0.19100     0.22641
 PX  C  13   0.04449     0.00453    -0.07895     0.00294     0.08243     0.01573
 PY  C  13  -0.01649     0.03604    -0.01861    -0.00268     0.06688    -0.02180
 PZ  C  13  -0.09066    -0.14269    -0.09152    -0.09916    -0.01165    -0.07206
  
  S  H  14   0.05373    -0.10593     0.08516     0.03092    -0.05951    -0.10252
  
  S  H  15  -0.03857     0.07032    -0.12991     0.03415    -0.17949     0.09025
  
  S  H  16   0.04834    -0.06375     0.13841     0.01149     0.11916    -0.07641
  
  S  H  17  -0.03330     0.09762    -0.13388     0.12538    -0.10278    -0.11290
  
  S  H  18   0.01199    -0.06780     0.08694    -0.07956     0.10926     0.05710
  
  S  H  19  -0.06157     0.10787    -0.09075     0.00132     0.12284    -0.11484
  
  S  H  20  -0.07170     0.08971     0.04875    -0.02881     0.11197    -0.09320
  
  S  C  21  -0.12080     0.14470     0.20093    -0.14784    -0.22305     0.07110
 PX  C  21   0.03356    -0.05406    -0.03826     0.02327    -0.03608    -0.05925
 PY  C  21  -0.02580    -0.00455     0.02400     0.00714    -0.05092    -0.02591
 PZ  C  21  -0.27444    -0.09179     0.09934     0.21116     0.01687     0.06535
  
  S  C  22   0.07715    -0.10086    -0.16320     0.12543     0.28170     0.04124
 PX  C  22   0.00882     0.03276     0.02334    -0.02822    -0.02612    -0.02719
 PY  C  22   0.01625     0.02058    -0.00756    -0.02989     0.02675     0.07931
 PZ  C  22   0.33704     0.12614    -0.09011    -0.19037    -0.00466    -0.07115
  
  S  C  23  -0.08594     0.08371     0.16093    -0.05473    -0.23044    -0.19159
 PX  C  23  -0.01247    -0.03053    -0.01193    -0.00794    -0.04577     0.05059
 PY  C  23  -0.01488    -0.03017    -0.02207     0.04621     0.05508    -0.00342
 PZ  C  23  -0.30503    -0.13471     0.06164     0.18953     0.02130     0.09813
  
  S  C  24   0.15965    -0.10708    -0.20748    -0.01426     0.10513     0.20510
 PX  C  24  -0.01064     0.02890     0.01255     0.00772     0.06786    -0.01039
 PY  C  24  -0.02241     0.04702     0.03935    -0.01367     0.01538    -0.03912
 PZ  C  24   0.20099     0.11179    -0.02741    -0.19958    -0.04787    -0.15690
  
  S  H  25   0.06687    -0.08205    -0.12444     0.09030     0.15073    -0.01763
  
  S  H  26  -0.05026     0.06404     0.10099    -0.07778    -0.17067    -0.00706
  
  S  H  27   0.05491    -0.05232    -0.09986     0.03071     0.14335     0.13222
  
  S  H  28  -0.09982     0.06123     0.13534     0.00720    -0.08310    -0.10815
  
  S  C  29   0.19287    -0.20322    -0.24456     0.11880     0.08004    -0.12630
 PX  C  29  -0.01517     0.01919    -0.01962     0.02251     0.10208    -0.01025
 PY  C  29   0.01512     0.00014    -0.05318    -0.02664     0.03904     0.13414
 PZ  C  29   0.09864     0.01819    -0.09952    -0.25989    -0.03282    -0.08455
  
  S  C  30  -0.19522     0.17594     0.23981    -0.00747    -0.00567    -0.17420
 PX  C  30  -0.01703     0.00055     0.06114    -0.03061    -0.10409     0.06104
 PY  C  30   0.00950    -0.03786    -0.01725     0.04466    -0.00749    -0.09578
 PZ  C  30  -0.06956    -0.00061     0.07758     0.24051     0.03475     0.15823




    ROOT NO.   55          56          57          58          59          60

             3.53483     3.63105     3.72703     3.86636     4.17906     4.27471
  
  
  S  C   1  -0.11659    -0.28954    -0.25606     0.07391    -0.09148     0.07808
 PX  C   1   0.00293     0.08591     0.04790     0.11185    -0.08067     0.06414
 PY  C   1   0.01238    -0.04105    -0.00707    -0.06984     0.04685    -0.01606
 PZ  C   1  -0.11410     0.01100    -0.01451    -0.05323     0.01838    -0.01385
  
  S  C   2   0.09026     0.00281     0.04161    -0.25551     0.21027    -0.17993
 PX  C   2  -0.03806    -0.14781    -0.12336    -0.04371    -0.00105     0.01591
 PY  C   2  -0.03869    -0.06886    -0.07198    -0.02786    -0.03392     0.05467
 PZ  C   2   0.13074    -0.04399    -0.00186     0.08350    -0.05035     0.05519
  
  S  C   3   0.02534     0.23512     0.20172     0.20525    -0.04488    -0.06240
 PX  C   3   0.05456    -0.00164    -0.04878     0.01539     0.07226    -0.15886
 PY  C   3   0.04575     0.07777     0.11463    -0.10830     0.07313    -0.02257
 PZ  C   3  -0.23984     0.07859    -0.01234    -0.07987     0.02768    -0.04492
  
  S  C   4  -0.03065    -0.20445    -0.26208     0.08845    -0.02150    -0.05318
 PX  C   4  -0.00208    -0.09080    -0.00746    -0.12745     0.11940    -0.12181
 PY  C   4   0.00089     0.05720     0.07183     0.10094     0.01401    -0.12062
 PZ  C   4   0.24116    -0.07228     0.01149     0.07699    -0.02289     0.04255
  
  S  C   5   0.00369    -0.08955     0.06652    -0.27348     0.21958    -0.19002
 PX  C   5   0.01886     0.13732     0.12751     0.02034    -0.03785     0.03724
 PY  C   5   0.04090     0.06561     0.06563    -0.00007     0.02637    -0.03878
 PZ  C   5  -0.13486     0.02204    -0.00180    -0.06364     0.03632    -0.04621
  
  S  C   6   0.07821     0.29580     0.18696     0.17034    -0.07810     0.01489
 PX  C   6   0.01425     0.02074     0.00295     0.02028    -0.02181     0.03705
 PY  C   6  -0.04615    -0.05860    -0.09478     0.10458    -0.09955     0.08727
 PZ  C   6   0.11092    -0.00656     0.00843     0.05886    -0.02467     0.02006
  
  S  C   7  -0.09495    -0.11948     0.02472    -0.11591    -0.10223     0.33301
 PX  C   7  -0.02980     0.08256     0.11073     0.08288    -0.05484     0.01986
 PY  C   7  -0.03318     0.01996     0.05749     0.03913    -0.02147    -0.05484
 PZ  C   7   0.23306    -0.07484     0.02902     0.07135    -0.00249     0.00421
  
  S  C   8   0.02012     0.11548    -0.00103    -0.09667    -0.11663     0.34288
 PX  C   8   0.01886    -0.07077    -0.15294     0.02914    -0.03735    -0.02933
 PY  C   8  -0.01664    -0.04208    -0.07727     0.00996    -0.03306     0.05695
 PZ  C   8  -0.23227     0.07755    -0.02867    -0.06383     0.00808    -0.03324
  
  S  C   9  -0.04508     0.04504     0.27451     0.04159     0.13235    -0.03013
 PX  C   9  -0.01950     0.07257     0.04908    -0.06407    -0.02048     0.17615
 PY  C   9   0.04363     0.03364    -0.04877    -0.05861     0.14708     0.06347
 PZ  C   9   0.31554    -0.13254     0.04307     0.07580     0.00202     0.04019
  
  S  C  10   0.11281    -0.02491    -0.23370    -0.05101     0.15023    -0.04378
 PX  C  10   0.00197    -0.05956     0.07144    -0.06397     0.10630     0.12902
 PY  C  10  -0.00554    -0.05033    -0.08480    -0.05430    -0.09121     0.11354
 PZ  C  10  -0.31054     0.13286    -0.04480    -0.07917    -0.00597    -0.01927
  
  S  C  11  -0.02343     0.12959    -0.05237     0.11797    -0.27129    -0.22461
 PX  C  11   0.04136     0.04077    -0.15053     0.02248     0.03155    -0.05267
 PY  C  11  -0.00768     0.04685    -0.07859     0.00999     0.07330     0.03485
 PZ  C  11   0.21628    -0.12228     0.04597     0.05116     0.02435     0.02902
  
  S  H  12  -0.01297    -0.09394     0.03421    -0.06386     0.22776     0.21903
  
  S  C  13  -0.04357    -0.14016    -0.07586     0.11506    -0.27140    -0.25351
 PX  C  13  -0.04664    -0.05717     0.13176     0.08590     0.04148    -0.00030
 PY  C  13  -0.01499    -0.00141     0.05031     0.03992    -0.02185    -0.06496
 PZ  C  13  -0.22605     0.11459    -0.04321    -0.06467    -0.01698    -0.02038
  
  S  H  14   0.05980     0.07523    -0.01666     0.06053     0.06437    -0.28966
  
  S  H  15   0.07395     0.19871     0.17596    -0.04945     0.04451    -0.01440
  
  S  H  16  -0.07071     0.00114    -0.02143     0.15893    -0.16983     0.17970
  
  S  H  17  -0.00854     0.07310    -0.04441     0.19135    -0.19045     0.19546
  
  S  H  18  -0.04773    -0.16551    -0.10914    -0.09540     0.02280     0.03723
  
  S  H  19  -0.01045    -0.09417     0.00118     0.05318     0.08372    -0.30672
  
  S  H  20   0.01123     0.09513     0.05307    -0.05722     0.21729     0.23733
  
  S  C  21  -0.15269    -0.01293    -0.09558     0.26187     0.27560     0.04890
 PX  C  21  -0.05906    -0.10901     0.13359     0.00768     0.02723     0.00967
 PY  C  21  -0.03524    -0.08236     0.09192    -0.01370    -0.05835    -0.02208
 PZ  C  21   0.12281    -0.08268     0.03540     0.03381     0.02399     0.01476
  
  S  C  22   0.22969     0.21961    -0.19162    -0.13380    -0.03711     0.02763
 PX  C  22  -0.01386     0.00140     0.00008    -0.01808     0.02062     0.02510
 PY  C  22   0.00445     0.08168    -0.11729     0.10983     0.12198     0.01767
 PZ  C  22  -0.07751     0.07381    -0.03369    -0.04525    -0.02656    -0.00913
  
  S  C  23  -0.13131    -0.22473     0.25810    -0.12469    -0.12134    -0.00338
 PX  C  23  -0.07949    -0.07092     0.05902     0.12432     0.09161     0.01377
 PY  C  23   0.05786     0.02783    -0.01670    -0.05584    -0.02537     0.01502
 PZ  C  23   0.08010    -0.06745     0.02792     0.05277     0.01256    -0.00023
  
  S  C  24  -0.09263     0.01788    -0.02411     0.31460     0.26319     0.04430
 PX  C  24   0.08702     0.11810    -0.12566    -0.05287     0.00062     0.00221
 PY  C  24   0.03044     0.06368    -0.06674    -0.00901     0.07166     0.02528
 PZ  C  24  -0.09707     0.07848    -0.02505    -0.12925    -0.07401    -0.01329
  
  S  H  25   0.10252     0.00585     0.06890    -0.17581    -0.25172    -0.06806
  
  S  H  26  -0.13902    -0.13602     0.11645     0.08791    -0.01894    -0.04857
  
  S  H  27   0.08669     0.14825    -0.17570     0.07565     0.04108    -0.02372
  
  S  H  28   0.06516    -0.01478     0.00245    -0.21932    -0.24669    -0.06813
  
  S  C  29  -0.04064    -0.18948     0.29752    -0.10852    -0.03315     0.05274
 PX  C  29   0.07880     0.05678    -0.00292    -0.12570    -0.15807    -0.04009
 PY  C  29  -0.05627    -0.03599     0.05900     0.11563    -0.08581    -0.09147
 PZ  C  29  -0.21535     0.16964    -0.10516    -0.05120    -0.02489    -0.02841
  
  S  C  30   0.16511     0.18819    -0.20288    -0.21168     0.02635     0.07115
 PX  C  30   0.00087     0.00089    -0.08533    -0.00196    -0.13070    -0.10039
 PY  C  30   0.01603    -0.07071     0.10877    -0.14276    -0.10150     0.01034
 PZ  C  30   0.19644    -0.16666     0.08951     0.11672     0.02065     0.00245




    ROOT NO.   61          62          63          64          65          66

             5.20298     5.40373     5.49614     5.66244     6.11730     6.47384
  
  
  S  C   1  -0.10488     0.03069    -0.26266     0.00854     0.03883    -0.01279
 PX  C   1   0.13285    -0.03754     0.13783    -0.14409    -0.11281     0.04618
 PY  C   1   0.02723    -0.01467     0.31589     0.11835     0.01144    -0.00285
 PZ  C   1   0.00089    -0.00169     0.05098     0.02246     0.00318    -0.00096
  
  S  C   2  -0.17888     0.04795    -0.15163     0.17417     0.11819    -0.04908
 PX  C   2  -0.09573     0.02760    -0.19216     0.02779     0.04169    -0.01815
 PY  C   2   0.05544    -0.02374     0.12553    -0.10906    -0.16882     0.12699
 PZ  C   2   0.03400    -0.00951     0.03199    -0.04012    -0.03608     0.02166
  
  S  C   3   0.04665    -0.00497    -0.01574     0.06319     0.13776    -0.11066
 PX  C   3  -0.14707     0.02188     0.01900     0.09983    -0.08606     0.11191
 PY  C   3  -0.04405     0.02321    -0.09805     0.09838     0.15760    -0.11686
 PZ  C   3  -0.01205     0.00273    -0.01388     0.01141     0.00876    -0.00514
  
  S  C   4  -0.03799    -0.00701     0.06724    -0.05760    -0.15837     0.11525
 PX  C   4   0.09335    -0.02256     0.01892    -0.13902    -0.07201     0.02722
 PY  C   4   0.10343    -0.02150     0.02752     0.00900     0.15010    -0.15204
 PZ  C   4  -0.00386     0.00132     0.01020     0.00807     0.00167     0.00052
  
  S  C   5   0.10978    -0.02627     0.00201    -0.19033    -0.11354     0.04383
 PX  C   5   0.01633     0.00447    -0.08394     0.04164     0.13003    -0.09509
 PY  C   5   0.06115    -0.01358    -0.13902    -0.21985    -0.15149     0.08740
 PZ  C   5   0.01610    -0.00432    -0.00886    -0.03819    -0.02917     0.01626
  
  S  C   6   0.06438    -0.00834    -0.28713    -0.23587    -0.08036     0.02755
 PX  C   6  -0.02619     0.00295     0.21956     0.18635     0.08446    -0.03274
 PY  C   6  -0.08578     0.02467    -0.10995     0.09624     0.08125    -0.03087
 PZ  C   6  -0.00713     0.00309    -0.05508    -0.01868    -0.00197     0.00037
  
  S  C   7   0.20850    -0.02551    -0.03704    -0.12921     0.10591    -0.13719
 PX  C   7   0.05616    -0.00688    -0.06208     0.01501     0.10786    -0.10211
 PY  C   7  -0.05035     0.00210    -0.00962     0.10863    -0.08381     0.25660
 PZ  C   7  -0.00703     0.00042     0.00345     0.00944    -0.00527     0.01236
  
  S  C   8  -0.20275     0.04200    -0.05064     0.07780    -0.10381     0.13497
 PX  C   8   0.01522    -0.02777     0.02653    -0.10090    -0.00943    -0.13597
 PY  C   8  -0.08766     0.01814    -0.02064     0.01144    -0.15203     0.22558
 PZ  C   8   0.00547    -0.00343    -0.00134    -0.00871     0.00256    -0.01471
  
  S  C   9   0.01810     0.03860    -0.02426     0.13329     0.01524     0.16186
 PX  C   9  -0.14687     0.02766    -0.01946     0.05486    -0.08422     0.10940
 PY  C   9  -0.10996     0.02964     0.06097    -0.09175    -0.06627    -0.19467
 PZ  C   9  -0.01380     0.00415     0.00174    -0.00037    -0.00718     0.00131
  
  S  C  10  -0.03617     0.01045     0.07659    -0.12396    -0.01186    -0.19296
 PX  C  10   0.16334     0.01041    -0.03455     0.02458     0.09836     0.07869
[...]
  S   H   18    0.1171   -0.0449   -0.0258   -0.0290   -0.0011    0.0031    0.3200   -0.0263
  S   H   19    0.1561   -0.2655    0.2724    0.1053   -0.1480   -0.0118    0.0533    0.1763
  S   H   20   -0.2010   -0.2412    0.2634   -0.1810   -0.0493    0.0490   -0.0092   -0.2252
  S   C   21   -0.1171   -0.0352   -0.0293    0.0237   -0.0131    0.0616   -0.0004    0.0502
  Px  C   21   -0.1248   -0.0607   -0.1799    0.2028   -0.2564   -0.0877    0.0050    0.0147
  Py  C   21    0.1395    0.0621    0.0619   -0.0697    0.0752    0.2664   -0.0021    0.2039
  Pz  C   21   -0.0057   -0.0033   -0.0024    0.0016    0.0044   -0.0173   -0.0003   -0.0189
  S   C   22   -0.0555   -0.0166    0.0321   -0.0331    0.0378   -0.1128   -0.0001   -0.0811
  Px  C   22   -0.0715   -0.0230    0.0302   -0.0328    0.0262    0.4922    0.0012    0.2496
  Py  C   22   -0.0782   -0.0178   -0.0367    0.0374   -0.0509   -0.0501    0.0007    0.0524
  Pz  C   22    0.0117    0.0043    0.0023   -0.0018    0.0018   -0.0433   -0.0001   -0.0267
  S   C   23    0.0372    0.0060    0.0351   -0.0351    0.0404    0.0951    0.0002   -0.0309
  Px  C   23    0.1024    0.0318   -0.0023    0.0036   -0.0144   -0.2071   -0.0016    0.1598
  Py  C   23    0.0027   -0.0014    0.0504   -0.0542    0.0613   -0.4777   -0.0014   -0.0547
  Pz  C   23   -0.0094   -0.0035   -0.0017    0.0020   -0.0015    0.0709    0.0003   -0.0224
  S   C   24    0.1131    0.0355   -0.0117    0.0079    0.0016   -0.0724   -0.0005    0.0989
  Px  C   24   -0.0435   -0.0112   -0.0338    0.0376   -0.0578   -0.1912   -0.0010    0.1502
  Py  C   24    0.2081    0.1240   -0.1559    0.1805   -0.2357    0.2106    0.0000   -0.2867
  Pz  C   24   -0.0310   -0.0121    0.0094   -0.0114    0.0185    0.0085    0.0002   -0.0050
  S   H   25    0.2044    0.0813    0.1326   -0.1440    0.1632    0.1575   -0.0028    0.0915
  S   H   26    0.0930    0.0290   -0.0243    0.0247   -0.0160   -0.2981   -0.0010   -0.1531
  S   H   27   -0.0712   -0.0211   -0.0379    0.0379   -0.0353    0.3313    0.0014   -0.0116
  S   H   28   -0.2115   -0.1002    0.0985   -0.1133    0.1420   -0.1549   -0.0001    0.1864
  S   C   29   -0.1550   -0.0764   -0.1344    0.1579   -0.2317    0.0065    0.0006    0.0248
  Px  C   29    0.0895    0.0381   -0.0145    0.0336   -0.0995   -0.0832    0.0065    0.0090
  Py  C   29   -0.1762   -0.1403    0.0361   -0.0496    0.1232   -0.0277   -0.0010    0.0301
  Pz  C   29    0.0117    0.0009    0.0190   -0.0220    0.0320   -0.0020   -0.0002   -0.0025
  S   C   30    0.1862    0.1188   -0.1111    0.1347   -0.2140   -0.0107    0.0015    0.0026
  Px  C   30    0.0915    0.0808    0.0414   -0.0503    0.0909    0.0852   -0.0002   -0.2947
  Py  C   30   -0.1488   -0.0761   -0.0476    0.0740   -0.1620    0.0637   -0.0018   -0.1154
  Pz  C   30   -0.0125   -0.0067    0.0130   -0.0157    0.0234    0.0091   -0.0000   -0.0164


   Root No.      73        74        75        76        77        78        79        80

                73 A      74 A      75 A      76 A      77 A      78 A      79 A      80 A   

                 9.311     9.504    10.137    10.612    11.055    11.555    11.789    12.080
  
  S   C    1    0.0362    0.0845   -0.0514   -0.0745    0.0498    0.0258    0.0197    0.0258
  Px  C    1    0.1647    0.2204    0.0408   -0.1864   -0.1406   -0.0347   -0.1750   -0.1671
  Py  C    1   -0.0060    0.1228   -0.1852   -0.0729    0.2147    0.0786    0.1597    0.1705
  Pz  C    1    0.0131    0.0327   -0.0208   -0.0235    0.0193    0.0086    0.0099    0.0119
  S   C    2   -0.0903   -0.0689   -0.0610    0.0249    0.0933    0.0496    0.0342    0.0269
  Px  C    2    0.1617    0.2382   -0.0124   -0.2230   -0.0454    0.0291   -0.1480   -0.1454
  Py  C    2   -0.2618   -0.1290   -0.1726   -0.0422    0.2052    0.1426   -0.0101   -0.0236
  Pz  C    2   -0.0174   -0.0054   -0.0123   -0.0076    0.0127    0.0110   -0.0062   -0.0076
  S   C    3   -0.0045   -0.0520    0.0072    0.0652    0.0271    0.0089    0.0235    0.0168
  Px  C    3   -0.2608   -0.0642   -0.2387   -0.1069   -0.0130   -0.2155    0.1051    0.1528
  Py  C    3   -0.0795   -0.0033   -0.1041   -0.0660    0.2951    0.3460   -0.1300   -0.1793
  Pz  C    3   -0.0140   -0.0023   -0.0155   -0.0071    0.0079   -0.0017    0.0027    0.0041
  S   C    4   -0.0272   -0.0398    0.0043    0.0544   -0.0289   -0.0158   -0.0188   -0.0169
  Px  C    4   -0.0543   -0.1466    0.2576   -0.1306   -0.2812   -0.1565    0.0698    0.1818
  Py  C    4   -0.0036   -0.1438    0.1581    0.0533    0.1585    0.3727   -0.1482   -0.1695
  Pz  C    4   -0.0009   -0.0000   -0.0028    0.0039    0.0059    0.0055   -0.0020   -0.0054
  S   C    5   -0.0654   -0.0811    0.0583    0.0278   -0.0932   -0.0508   -0.0335   -0.0222
  Px  C    5   -0.0146   -0.0643    0.1800   -0.1743   -0.1917   -0.1247    0.1047    0.2142
  Py  C    5    0.2684    0.2831   -0.0733   -0.1736    0.1394    0.0718    0.1242    0.1598
  Pz  C    5    0.0303    0.0334   -0.0151   -0.0118    0.0227    0.0129    0.0081    0.0070
  S   C    6    0.0726    0.0517    0.0468   -0.0600   -0.0489   -0.0154   -0.0132    0.0052
  Px  C    6    0.2585    0.1368    0.1627   -0.1458   -0.1356   -0.0394   -0.0354    0.0048
  Py  C    6    0.0902    0.1539   -0.1262   -0.1542    0.2226    0.0867    0.2435    0.2914
  Pz  C    6   -0.0127    0.0005   -0.0208   -0.0007    0.0258    0.0083    0.0223    0.0237
  S   C    7    0.1086   -0.0121    0.0681    0.0897    0.0383    0.0470    0.0319   -0.0062
  Px  C    7   -0.1825   -0.0998   -0.1570   -0.0155    0.0095   -0.1800    0.1530    0.1691
  Py  C    7    0.3106   -0.0827    0.0977    0.2453    0.1085    0.0365    0.1689    0.0472
  Pz  C    7   -0.0045   -0.0061   -0.0067    0.0024    0.0017   -0.0080    0.0093    0.0084
  S   C    8   -0.0057    0.0616   -0.0957    0.0662   -0.0328   -0.0752   -0.0339   -0.0141
  Px  C    8   -0.0487    0.0081   -0.0426    0.1977   -0.1127    0.0076   -0.2045   -0.0711
  Py  C    8   -0.0251   -0.2153    0.2486   -0.0840    0.0247    0.1910   -0.0198   -0.0317
  Pz  C    8   -0.0034    0.0091   -0.0145    0.0164   -0.0098   -0.0095   -0.0135   -0.0043
  S   C    9    0.0060    0.0379   -0.0405    0.0044    0.0016   -0.0285   -0.0090   -0.0226
  Px  C    9   -0.0649    0.0758   -0.1244    0.2433   -0.1639   -0.0676   -0.2227   -0.0862
  Py  C    9   -0.0257    0.0832    0.1081    0.1275   -0.1085    0.1260    0.3831   -0.0532
  Pz  C    9   -0.0049    0.0051   -0.0036    0.0171   -0.0115    0.0007   -0.0073   -0.0050
  S   C   10    0.0041    0.0379    0.0503   -0.0030    0.0025    0.0372    0.0097   -0.0136
  Px  C   10    0.2597   -0.0841   -0.0732    0.2519    0.1732   -0.1395   -0.1807    0.0943
  Py  C   10    0.1276   -0.0939    0.1258    0.1328    0.0639    0.0805    0.4037    0.0765
  Pz  C   10    0.0106   -0.0040   -0.0028    0.0084    0.0066   -0.0048   -0.0019    0.0023
  S   C   11   -0.0974    0.0639    0.0809   -0.0707   -0.0296    0.0774    0.0157    0.0044
  Px  C   11    0.1789   -0.0216   -0.0064    0.2050    0.1283   -0.0600   -0.1733    0.0944
  Py  C   11   -0.2504    0.2118    0.2233   -0.0801    0.0003    0.1505   -0.0506    0.0920
  Pz  C   11   -0.0218    0.0230    0.0258   -0.0016    0.0045    0.0142   -0.0099    0.0118
  S   H   12   -0.1745    0.1116    0.1148   -0.0821   -0.0373    0.0963    0.0268    0.0290
  S   C   13    0.0140   -0.0023   -0.0612   -0.0878    0.0449   -0.0599   -0.0366   -0.0312
  Px  C   13   -0.0058    0.1008   -0.1432   -0.0102   -0.0297   -0.1080    0.1032   -0.2108
  Py  C   13   -0.0362    0.0707    0.0609    0.2386   -0.1357    0.0796    0.1541   -0.0221
  Pz  C   13    0.0001    0.0096   -0.0166   -0.0033   -0.0022   -0.0119    0.0088   -0.0204
  S   H   14    0.2145   -0.0171    0.0958    0.1198    0.0585    0.0810    0.0488   -0.0240
  S   H   15    0.0480    0.1300   -0.0767   -0.0935    0.0603    0.0288    0.0216    0.0292
  S   H   16   -0.1784   -0.1290   -0.0834    0.0383    0.1204    0.0719    0.0317    0.0219
  S   H   17   -0.1411   -0.1592    0.0840    0.0359   -0.1229   -0.0745   -0.0305   -0.0176
  S   H   18    0.1607    0.0793    0.1083   -0.0887   -0.0924   -0.0298   -0.0253   -0.0017
  S   H   19   -0.0032    0.1134   -0.1392    0.0817   -0.0467   -0.1028   -0.0460    0.0031
  S   H   20    0.0209   -0.0162   -0.0680   -0.1170    0.0669   -0.0797   -0.0527   -0.0470
  S   C   21    0.0487   -0.0864   -0.0737   -0.0376   -0.0911    0.0773    0.0259   -0.0095
  Px  C   21   -0.1164    0.0847    0.1759   -0.1542    0.1405   -0.0837    0.0926   -0.2603
  Py  C   21    0.1418   -0.2776   -0.1239   -0.1724   -0.1517    0.1450    0.0935   -0.1400
  Pz  C   21   -0.0045    0.0192    0.0024    0.0246    0.0090   -0.0110   -0.0142    0.0256
  S   C   22   -0.0119    0.0606   -0.0375    0.0701   -0.0364    0.0150    0.0070    0.0243
  Px  C   22    0.0171   -0.1501    0.1140   -0.1541    0.0940   -0.0406   -0.0257   -0.0339
  Py  C   22    0.0723   -0.1422   -0.1597   -0.1444   -0.2330    0.2085    0.1881   -0.2516
  Pz  C   22   -0.0059    0.0221   -0.0025    0.0222    0.0032   -0.0068   -0.0092    0.0195
  S   C   23   -0.0412    0.0789    0.0415    0.0783    0.0238   -0.0226    0.0066    0.0088
  Px  C   23    0.0961   -0.2243    0.0518   -0.2182    0.1733   -0.1286   -0.1794    0.1395
  Py  C   23    0.0967   -0.1091   -0.1973   -0.0695   -0.1989    0.1521    0.1107   -0.1267
  Pz  C   23   -0.0232    0.0448    0.0091    0.0391   -0.0077    0.0046    0.0180   -0.0119
  S   C   24    0.0311   -0.0827    0.0607   -0.0397    0.0877   -0.0715   -0.0213    0.0033
  Px  C   24    0.1036   -0.2362   -0.0061   -0.2481    0.0922   -0.0526   -0.1695    0.1397
  Py  C   24   -0.0469    0.1387   -0.1746   -0.0539   -0.1553    0.1411   -0.0699    0.0920
  Pz  C   24   -0.0088    0.0204    0.0016    0.0279   -0.0125    0.0079    0.0205   -0.0157
  S   H   25    0.1058   -0.1580   -0.1137   -0.0310   -0.1162    0.0968    0.0155    0.0140
  S   H   26   -0.0102    0.0939   -0.0651    0.0974   -0.0514    0.0214    0.0098    0.0267
  S   H   27   -0.0803    0.1230    0.0902    0.0999    0.0531   -0.0425   -0.0019    0.0195
  S   H   28    0.0487   -0.1274    0.0862   -0.0345    0.1011   -0.0851   -0.0096   -0.0106
  S   C   29    0.0010   -0.0352   -0.0124   -0.0567   -0.0317    0.0322    0.0105   -0.0098
  Px  C   29   -0.1591    0.1456    0.2562   -0.1156    0.2230   -0.1465    0.0774   -0.2520
  Py  C   29   -0.1145    0.1388    0.1505    0.0358   -0.0844    0.2839   -0.1684    0.2945
  Pz  C   29   -0.0047    0.0096    0.0065    0.0082   -0.0037    0.0142   -0.0113    0.0188
  S   C   30    0.0156   -0.0451   -0.0017   -0.0636    0.0325   -0.0235   -0.0165    0.0039
  Px  C   30    0.0165    0.0789   -0.2175   -0.0968    0.0081   -0.1705    0.0608   -0.2260
  Py  C   30   -0.0103    0.0173   -0.1253   -0.0898   -0.2042    0.2823   -0.1856    0.3022
  Pz  C   30   -0.0022    0.0101   -0.0102    0.0007   -0.0006   -0.0099    0.0062   -0.0147


   Root No.      81        82        83        84

                81 A      82 A      83 A      84 A   

                12.500    12.713    13.131    14.480
  
  S   C    1   -0.0642   -0.0153   -0.0049    0.0388
  Px  C    1   -0.1397   -0.2648   -0.1990    0.1043
  Py  C    1   -0.0593    0.1370    0.1175    0.0195
  Pz  C    1   -0.0171    0.0013    0.0032    0.0086
  S   C    2   -0.0250    0.0114    0.0131    0.0304
  Px  C    2   -0.2025   -0.2791   -0.1980    0.1525
  Py  C    2   -0.1603   -0.1107   -0.0574    0.1296
  Pz  C    2   -0.0152   -0.0164   -0.0103    0.0119
  S   C    3    0.0155    0.0138   -0.0022    0.0241
  Px  C    3   -0.1735   -0.1508   -0.2493    0.2273
  Py  C    3   -0.1916   -0.1756   -0.0224    0.1270
  Pz  C    3   -0.0146   -0.0119   -0.0131    0.0158
  S   C    4    0.0037    0.0039    0.0168    0.0281
  Px  C    4   -0.2349    0.1051    0.1451    0.1929
  Py  C    4   -0.1995   -0.0259    0.1955    0.1440
  Pz  C    4    0.0046   -0.0031   -0.0022   -0.0023
  S   C    5   -0.0069   -0.0218   -0.0153    0.0242
  Px  C    5   -0.2303    0.1216    0.1383    0.1562
  Py  C    5   -0.1179    0.1226    0.1275    0.0438
  Pz  C    5   -0.0034    0.0060    0.0060   -0.0015
  S   C    6   -0.0532   -0.0138    0.0012    0.0327
  Px  C    6   -0.1154   -0.0377   -0.0040    0.0687
  Py  C    6   -0.1396    0.2407    0.2237    0.0531
  Pz  C    6   -0.0030    0.0225    0.0185    0.0001
  S   C    7    0.0587    0.0124    0.0027    0.0168
  Px  C    7   -0.1259   -0.1368   -0.2527    0.2573
  Py  C    7    0.0561   -0.0878   -0.1224    0.1717
  Pz  C    7   -0.0060   -0.0085   -0.0136    0.0139
  S   C    8    0.0562    0.0236   -0.0030    0.0082
  Px  C    8   -0.1719    0.1246    0.2453    0.2618
  Py  C    8   -0.2012   -0.0146    0.1397    0.1263
  Pz  C    8   -0.0029    0.0082    0.0102    0.0122
  S   C    9    0.0620    0.0014    0.0078    0.0085
  Px  C    9   -0.0903    0.1318    0.2432    0.2680
  Py  C    9    0.1485   -0.2620    0.1218    0.1639
  Pz  C    9   -0.0036    0.0035    0.0166    0.0193
  S   C   10    0.0607    0.0241    0.0062   -0.0059
  Px  C   10   -0.0243    0.1854   -0.2193    0.2685
  Py  C   10    0.0740   -0.2546   -0.1365    0.1649
  Pz  C   10    0.0004    0.0038   -0.0077    0.0104
  S   C   11    0.0674    0.0128   -0.0076   -0.0077
  Px  C   11    0.0517    0.2149   -0.2166    0.2590
  Py  C   11    0.1860    0.1156   -0.1434    0.1323
  Pz  C   11    0.0209    0.0178   -0.0198    0.0209
  S   H   12    0.0715   -0.0071   -0.0166    0.0004
  S   C   13    0.0438    0.0211    0.0038   -0.0156
  Px  C   13    0.1887   -0.0813    0.2552    0.2567
  Py  C   13    0.0482   -0.1215    0.1302    0.1787
  Pz  C   13    0.0189   -0.0070    0.0235    0.0236
  S   H   14    0.0516   -0.0181    0.0073    0.0144
  S   H   15   -0.0688   -0.0132   -0.0017    0.0365
  S   H   16   -0.0221    0.0200    0.0274    0.0173
  S   H   17    0.0004   -0.0248   -0.0266    0.0145
  S   H   18   -0.0647   -0.0275   -0.0087    0.0365
  S   H   19    0.0459    0.0417   -0.0089    0.0014
  S   H   20    0.0109    0.0412    0.0026   -0.0210
  S   C   21   -0.0083    0.0233   -0.0203   -0.0206
  Px  C   21    0.1296    0.2464   -0.1082    0.1653
  Py  C   21    0.0485    0.1889   -0.1161    0.0544
  Pz  C   21   -0.0113   -0.0279    0.0145   -0.0120
  S   C   22   -0.0511   -0.0303    0.0094   -0.0361
  Px  C   22    0.1096    0.0416   -0.0051    0.0694
  Py  C   22    0.0210    0.3026   -0.1875    0.0694
  Pz  C   22   -0.0105   -0.0228    0.0121   -0.0106
  S   C   23   -0.0671   -0.0088   -0.0108   -0.0385
  Px  C   23    0.2387   -0.1733    0.1649    0.0940
  Py  C   23    0.0043    0.1483   -0.0897    0.0301
  Pz  C   23   -0.0365    0.0143   -0.0173   -0.0161
  S   C   24   -0.0102   -0.0246    0.0160   -0.0258
  Px  C   24    0.2923   -0.1525    0.1587    0.1356
  Py  C   24    0.2042   -0.0313    0.0484    0.1269
  Pz  C   24   -0.0305    0.0156   -0.0157   -0.0121
  S   H   25   -0.0122    0.0176   -0.0245   -0.0173
  S   H   26   -0.0626   -0.0280    0.0042   -0.0375
  S   H   27   -0.0695   -0.0234   -0.0012   -0.0379
  S   H   28   -0.0186   -0.0250    0.0211   -0.0188
  S   C   29    0.0073   -0.0027    0.0106   -0.0285
  Px  C   29    0.1337    0.2379   -0.1085    0.1974
  Py  C   29    0.1851    0.1034   -0.2067    0.1403
  Pz  C   29    0.0083    0.0064   -0.0134    0.0100
  S   C   30    0.0076    0.0005   -0.0099   -0.0294
  Px  C   30    0.2132   -0.0641    0.2482    0.2222
  Py  C   30    0.2568   -0.0646   -0.0052    0.1182
  Pz  C   30    0.0106   -0.0050    0.0164    0.0148


              NET ATOMIC CHARGES AND DIPOLE CONTRIBUTIONS

  ATOM NO.   TYPE          CHARGE      No. of ELECS.   s-Pop       p-Pop       
    1          C          -0.019501        4.0195     1.09412     2.92538
    2          C          -0.023710        4.0237     1.09568     2.92803
    3          C           0.009252        3.9907     1.07440     2.91635
    4          C           0.006387        3.9936     1.08304     2.91057
    5          C          -0.039920        4.0399     1.11550     2.92442
    6          C          -0.025982        4.0260     1.08956     2.93642
    7          C          -0.035876        4.0359     1.10157     2.93431
    8          C          -0.037259        4.0373     1.09837     2.93889
    9          C           0.017381        3.9826     1.05895     2.92367
   10          C           0.011925        3.9881     1.06372     2.92435
   11          C          -0.037481        4.0375     1.09996     2.93752
   12          H           0.023206        0.9768     0.97679
   13          C          -0.036029        4.0360     1.09892     2.93711
   14          H           0.017443        0.9826     0.98256
   15          H           0.024706        0.9753     0.97529
   16          H           0.023489        0.9765     0.97651
   17          H           0.032859        0.9671     0.96714
   18          H           0.024180        0.9758     0.97582
   19          H           0.027012        0.9730     0.97299
   20          H           0.018042        0.9820     0.98196
   21          C          -0.026252        4.0263     1.09862     2.92763
   22          C          -0.025390        4.0254     1.10073     2.92466
   23          C          -0.028974        4.0290     1.10299     2.92598
   24          C          -0.029243        4.0292     1.10779     2.92146
   25          H           0.031953        0.9680     0.96805
   26          H           0.018493        0.9815     0.98151
   27          H           0.026789        0.9732     0.97321
   28          H           0.026626        0.9734     0.97337
   29          C           0.015678        3.9843     1.06932     2.91500
   30          C           0.010197        3.9898     1.07229     2.91752
 DIPOLE           X         Y         Z       TOTAL
 POINT-CHG.     0.011    -0.010    -0.040     0.043
 HYBRID         0.071     0.205    -0.327     0.392
 SUM            0.082     0.195    -0.367     0.423


          ATOMIC ORBITAL ELECTRON POPULATIONS

     Atom    s        px        py        pz   
    1  C   1.09412   0.97945   0.94939   0.99655
    2  C   1.09568   0.97097   0.95229   1.00477
    3  C   1.07440   0.96619   0.96449   0.98567
    4  C   1.08304   0.96389   0.96904   0.97764
    5  C   1.11550   0.96808   0.95286   1.00349
    6  C   1.08956   0.95610   0.98017   1.00014
    7  C   1.10157   0.96254   0.95477   1.01700
    8  C   1.09837   0.96698   0.95077   1.02114
    9  C   1.05895   0.96852   0.97518   0.97997
   10  C   1.06372   0.96488   0.97446   0.98501
   11  C   1.09996   0.96239   0.95181   1.02332
   12  H   0.97679
   13  C   1.09892   0.97383   0.94845   1.01484
   14  H   0.98256
   15  H   0.97529
   16  H   0.97651
   17  H   0.96714
   18  H   0.97582
   19  H   0.97299
   20  H   0.98196
   21  C   1.09862   0.96556   0.96030   1.00178
   22  C   1.10073   0.94300   0.98050   1.00116
   23  C   1.10299   0.99351   0.94509   0.98738
   24  C   1.10779   0.98179   0.94152   0.99814
   25  H   0.96805
   26  H   0.98151
   27  H   0.97321
   28  H   0.97337
   29  C   1.06932   0.96090   0.97150   0.98260
   30  C   1.07229   0.97660   0.95953   0.98139

 **********************
 *                    *
 * JOB ENDED NORMALLY *
 *                    *
 **********************



 TOTAL JOB TIME:             0.92 SECONDS

 == MOPAC DONE ==


          MOPAC Job: "./tetraceneTraj/tetracene_829.mop" ended normally on Feb 15, 2023, at 11:27.

rm: cannot remove ./tetraceneTraj/tetracene_829.cim: No such file or directory
rm: cannot remove ./tetraceneTraj/tetracene_829.end: No such file or directory
rm: cannot remove ./tetraceneTraj/tetracene_829.log: No such file or directory
rm: cannot remove ./tetraceneTraj/tetracene_829.temp: No such file or directory
rm: cannot remove ./tetraceneTraj/tetracene_829.ple: No such file or directory
rm: cannot remove ./tetraceneTraj/tetracene_829.sts: No such file or directory
