 *******************************************************************************
 ** Site#:    0         For non-commercial use only    Version 20.173L 64BITS **
 *******************************************************************************
 ** Cite this program as: MOPAC2016, Version: 20.173L, James J. P. Stewart,   **
 ** Stewart Computational Chemistry, web-site: HTTP://OpenMOPAC.net.          **
 *******************************************************************************
 **                                                                           **
 **                                MOPAC2016                                  **
 **                                                                           **
 *******************************************************************************

                              INDO CALCULATION RESULTS

 *******************************************************************************
 *  CALCULATION DONE:                                Wed Feb 15 11:37:53 2023  *
 *  INDO       - The INDO Hamiltonian to be used
 *
 *
 *
 *                 CHARGE ON SYSTEM = 0
 *
 *
 *
 *  C.I.=(N,M) - 3 DOUBLY FILLED LEVELS USED IN A C.I. INVOLVING 6 M.O.'S
 *  T=         - A TIME OF 172800.0 SECONDS REQUESTED
 *  DUMP=N     - RESTART FILE WRITTEN EVERY 7200.0 SECONDS REQUESTED
 *  RELSCF     - DEFAULT SCF CRITERION MULTIPLIED BY 0.0000
 *              (DEFAULT SCF CRITERION = 0.00010)
 *  ALLVEC     - PRINT ALL EIGENVECTORS
 **********
 *  WARNING: Specified print options may not behave as expected with INDO
 **********
 *******************************************************************************
INDO C.I.=(6,3) AllVEC CHARGE=0 RELSCF=0.000001


   ATOM   CHEMICAL          X               Y               Z
  NUMBER   SYMBOL      (ANGSTROMS)     (ANGSTROMS)     (ANGSTROMS)
 
     1       C         18.49064952  *  19.49403416  *  22.39729563  *
     2       C         19.89316919  *  19.44860517  *  22.43649146  *
     3       C         20.70334580  *  20.65729730  *  22.48703653  *
     4       C         19.98333888  *  21.95752334  *  22.46369408  *
     5       C         18.51202575  *  21.96211617  *  22.42672317  *
     6       C         17.76481050  *  20.78136899  *  22.30265572  *
     7       C         22.10175490  *  20.66728405  *  22.52704931  *
     8       C         20.68194597  *  23.15949920  *  22.57385957  *
     9       C         22.10410805  *  23.18224642  *  22.52412795  *
    10       C         22.82877746  *  21.87715832  *  22.52553712  *
    11       C         24.27093711  *  21.79699762  *  22.52525746  *
    12       H         24.74043247  *  20.81780599  *  22.48357412  *
    13       C         22.89110656  *  24.36847477  *  22.58228980  *
    14       H         22.63382818  *  19.69420032  *  22.64437586  *
    15       H         17.87549511  *  18.56538541  *  22.58237913  *
    16       H         20.36932940  *  18.42705431  *  22.43583904  *
    17       H         18.05278721  *  22.99138852  *  22.38332252  *
    18       H         16.72634322  *  20.82269619  *  22.14179674  *
    19       H         20.07402827  *  24.03367726  *  22.67949051  *
    20       H         22.42976881  *  25.34802075  *  22.57954169  *
    21       C         26.52584083  *  23.05393784  *  22.54476881  *
    22       C         27.23186250  *  24.25423699  *  22.44002102  *
    23       C         26.51572916  *  25.51436021  *  22.53124651  *
    24       C         25.13455728  *  25.52926102  *  22.57631019  *
    25       H         27.01291663  *  22.05369893  *  22.52368484  *
    26       H         28.36551842  *  24.24897791  *  22.32961101  *
    27       H         27.01659832  *  26.44332832  *  22.43367570  *
    28       H         24.48724532  *  26.39871889  *  22.57822511  *
    29       C         25.05025563  *  23.01304940  *  22.55204694  *
    30       C         24.33390297  *  24.29557195  *  22.60076058  *
 


          CARTESIAN COORDINATES 

    NO.       ATOM           X           Y           Z

     1         C         18.4906     19.4940     22.3973
     2         C         19.8932     19.4486     22.4365
     3         C         20.7033     20.6573     22.4870
     4         C         19.9833     21.9575     22.4637
     5         C         18.5120     21.9621     22.4267
     6         C         17.7648     20.7814     22.3027
     7         C         22.1018     20.6673     22.5270
     8         C         20.6819     23.1595     22.5739
     9         C         22.1041     23.1822     22.5241
    10         C         22.8288     21.8772     22.5255
    11         C         24.2709     21.7970     22.5253
    12         H         24.7404     20.8178     22.4836
    13         C         22.8911     24.3685     22.5823
    14         H         22.6338     19.6942     22.6444
    15         H         17.8755     18.5654     22.5824
    16         H         20.3693     18.4271     22.4358
    17         H         18.0528     22.9914     22.3833
    18         H         16.7263     20.8227     22.1418
    19         H         20.0740     24.0337     22.6795
    20         H         22.4298     25.3480     22.5795
    21         C         26.5258     23.0539     22.5448
    22         C         27.2319     24.2542     22.4400
    23         C         26.5157     25.5144     22.5312
    24         C         25.1346     25.5293     22.5763
    25         H         27.0129     22.0537     22.5237
    26         H         28.3655     24.2490     22.3296
    27         H         27.0166     26.4433     22.4337
    28         H         24.4872     26.3987     22.5782
    29         C         25.0503     23.0130     22.5520
    30         C         24.3339     24.2956     22.6008

           Empirical Formula: C18 H12  =    30 atoms



      MOLECULAR POINT GROUP   :   C1  


      RHF CALCULATION, NO. OF DOUBLY OCCUPIED LEVELS = 42

 WARNING: INDO only performs single-point calculations
  SCF CRITERION =    0.1000E-09

 Summary of symmetry occupancy in each shell:

 SHELL     
    1   42
    v   42
 TOTAL  84




    ROOT NO.    1           2           3           4           5           6

           -44.32200   -42.55477   -40.02204   -36.71177   -35.76288   -33.98146
  
  
  S  C   1   0.11912    -0.17733    -0.28252     0.26167     0.06481    -0.09949
 PX  C   1   0.03274    -0.04236    -0.04877     0.01475     0.04723    -0.07841
 PY  C   1   0.04355    -0.06178    -0.08906     0.06561    -0.01875     0.03849
 PZ  C   1   0.00110    -0.00143    -0.00174     0.00089     0.00267    -0.00485
  
  S  C   2   0.15671    -0.19967    -0.24050     0.13358     0.18343    -0.25699
 PX  C   2  -0.00079     0.02032     0.07333    -0.10589     0.04259    -0.03700
 PY  C   2   0.06426    -0.07443    -0.06920     0.00633     0.02244    -0.02084
 PZ  C   2   0.00094    -0.00048     0.00128    -0.00323     0.00236    -0.00265
  
  S  C   3   0.29475    -0.26346    -0.09922    -0.14685     0.20142    -0.21453
 PX  C   3   0.01015     0.04190     0.14257    -0.12958     0.08450    -0.04866
 PY  C   3   0.06531    -0.03057     0.05646    -0.10193    -0.08961     0.11023
 PZ  C   3  -0.00008     0.00214     0.00619    -0.00588     0.00051     0.00056
  
  S  C   4   0.30153    -0.27135    -0.10543    -0.16629    -0.18327     0.18050
 PX  C   4   0.05802    -0.00097     0.12510    -0.15155     0.04103    -0.08254
 PY  C   4  -0.02002     0.04507     0.08643    -0.07068    -0.13695     0.12360
 PZ  C   4   0.00559    -0.00259     0.00572    -0.01131    -0.00521     0.00281
  
  S  C   5   0.16182    -0.20571    -0.24595     0.11930    -0.18112     0.25733
 PX  C   5   0.05447    -0.05222    -0.01752    -0.05993    -0.04270     0.03145
 PY  C   5  -0.03308     0.05546     0.10003    -0.10101    -0.03511     0.02754
 PZ  C   5  -0.00065     0.00225     0.00641    -0.00876     0.00038    -0.00337
  
  S  C   6   0.11902    -0.17773    -0.28472     0.26239    -0.05737     0.11289
 PX  C   6   0.05336    -0.07356    -0.09943     0.06085    -0.00561     0.00633
 PY  C   6   0.00490    -0.00376     0.00418    -0.02273    -0.04841     0.07938
 PZ  C   6   0.00541    -0.00770    -0.01110     0.00798    -0.00114     0.00169
  
  S  C   7   0.26611    -0.12892     0.13858    -0.19821     0.33814    -0.17153
 PX  C   7  -0.03897     0.06912     0.04951     0.08278     0.01798     0.08486
 PY  C   7   0.08722    -0.01847     0.08432    -0.05549     0.00478     0.04004
 PZ  C   7  -0.00046     0.00132     0.00163     0.00074     0.00139     0.00069
  
  S  C   8   0.26719    -0.13964     0.12009    -0.22848    -0.33051     0.17408
 PX  C   8   0.04814     0.02279     0.09623    -0.00376    -0.00065    -0.08615
 PY  C   8  -0.08037     0.06823    -0.00337     0.09696    -0.01306    -0.03458
 PZ  C   8  -0.00658     0.00496    -0.00111     0.00730     0.00464    -0.00484
  
  S  C   9   0.33343     0.00403     0.28257     0.01109    -0.23603    -0.01926
 PX  C   9   0.01131     0.08995     0.03091     0.19150     0.07127    -0.05545
 PY  C   9  -0.05920     0.04889    -0.03783     0.10077    -0.12521    -0.04093
 PZ  C   9   0.00443     0.00114     0.00477     0.00238    -0.00682    -0.00143
  
  S  C  10   0.33885     0.00576     0.29422     0.02249     0.22565     0.01725
 PX  C  10  -0.04239     0.08897    -0.01310     0.18720     0.06420     0.07653
 PY  C  10   0.03466     0.04870     0.03540     0.09943    -0.15337     0.02396
 PZ  C  10   0.00083     0.00079     0.00120     0.00144    -0.00095    -0.00026
  
  S  C  11   0.21824     0.14051     0.15985     0.23304     0.28497     0.22077
 PX  C  11  -0.05348     0.02220    -0.08726    -0.01051    -0.03031     0.07121
 PY  C  11   0.05749     0.07220     0.01712     0.10041    -0.02499     0.04420
 PZ  C  11   0.00093     0.00101     0.00059     0.00200    -0.00076    -0.00001
  
  S  H  12   0.06907     0.04005     0.05051     0.06321     0.14848     0.10319
  
  S  C  13   0.22238     0.15111     0.15024     0.23720    -0.29632    -0.21337
 PX  C  13   0.02081     0.07513    -0.03387     0.07854     0.02520    -0.06872
 PY  C  13  -0.07536    -0.01795    -0.08435    -0.06286     0.00898    -0.04813
 PZ  C  13  -0.00257    -0.00135    -0.00210    -0.00208     0.00204     0.00005
  
  S  H  14   0.07953    -0.03618     0.04038    -0.04722     0.16758    -0.07851
  
  S  H  15   0.02911    -0.04619    -0.08217     0.09117     0.02533    -0.04170
  
  S  H  16   0.04480    -0.05577    -0.06515     0.03646     0.08757    -0.12103
  
  S  H  17   0.05113    -0.06129    -0.06533     0.02007    -0.09816     0.13162
  
  S  H  18   0.03207    -0.05085    -0.09036     0.09852    -0.02639     0.05459
  
  S  H  19   0.08449    -0.04710     0.02831    -0.06850    -0.17210     0.09981
  
  S  H  20   0.07004     0.04975     0.04061     0.06775    -0.15000    -0.11505
  
  S  C  21   0.12742     0.25699    -0.19307    -0.11160     0.15006     0.30069
 PX  C  21  -0.04100    -0.06084     0.00956    -0.05350    -0.02791    -0.03889
 PY  C  21   0.03113     0.08013    -0.08745    -0.09220    -0.01446    -0.02192
 PZ  C  21  -0.00176    -0.00429     0.00450     0.00492    -0.00282    -0.00617
  
  S  C  22   0.10226     0.24191    -0.24267    -0.24846     0.06666     0.12748
 PX  C  22  -0.04661    -0.10220     0.08732     0.06083    -0.01065    -0.01263
 PY  C  22  -0.00206     0.00040    -0.00988    -0.02735    -0.03740    -0.09844
 PZ  C  22   0.00413     0.00960    -0.00911    -0.00792     0.00174     0.00310
  
  S  C  23   0.10705     0.25289    -0.25318    -0.25735    -0.03185    -0.12350
 PX  C  23  -0.02855    -0.05798     0.04076     0.00904     0.03692     0.08688
 PY  C  23  -0.03684    -0.08260     0.07406     0.05943    -0.02301    -0.05250
 PZ  C  23  -0.00090    -0.00250     0.00329     0.00506    -0.00092    -0.00120
  
  S  C  24   0.13844     0.27734    -0.20523    -0.10952    -0.14000    -0.29902
 PX  C  24   0.00224     0.03375    -0.07234    -0.11702     0.04756     0.04808
 PY  C  24  -0.05162    -0.09360     0.05227    -0.00099     0.00924     0.00442
 PZ  C  24  -0.00141    -0.00327     0.00335     0.00392    -0.00034     0.00039
  
  S  H  25   0.03824     0.07291    -0.04925    -0.02182     0.07504     0.14782
  
  S  H  26   0.02435     0.06142    -0.06885    -0.08451     0.02553     0.05314
  
  S  H  27   0.02948     0.07384    -0.08183    -0.09822    -0.01692    -0.06370
  
  S  H  28   0.04699     0.08735    -0.05523    -0.01566    -0.08466    -0.16465
  
  S  C  29   0.23229     0.31374    -0.04527     0.17630     0.14912     0.24349
 PX  C  29  -0.04586     0.00862    -0.11771    -0.15547     0.02888     0.07573
 PY  C  29   0.02496     0.07384    -0.07836    -0.05471    -0.09111    -0.11386
 PZ  C  29   0.00002    -0.00002     0.00034     0.00115    -0.00241    -0.00342
  
  S  C  30   0.24107     0.32631    -0.04874     0.18521    -0.14938    -0.19999
 PX  C  30  -0.00640     0.06432    -0.12986    -0.13284     0.07840     0.06625
 PY  C  30  -0.04537    -0.02071    -0.06245    -0.09659    -0.08153    -0.15545
 PZ  C  30  -0.00508    -0.00711     0.00151    -0.00278     0.00105     0.00115




    ROOT NO.    7           8           9          10          11          12

           -31.66572   -31.23535   -28.78906   -28.11253   -26.97941   -25.97949
  
  
  S  C   1   0.10919     0.27549    -0.15704     0.29332    -0.03985    -0.19230
 PX  C   1   0.12707    -0.05642    -0.14910    -0.12213    -0.03828    -0.06207
 PY  C   1  -0.07415     0.01450     0.10561    -0.03300     0.08682     0.08355
 PZ  C   1   0.00850     0.00057    -0.01273     0.00197    -0.00594    -0.01205
  
  S  C   2   0.29739     0.01328    -0.23111    -0.07434    -0.12270    -0.01005
 PX  C   2   0.00213    -0.13323     0.11189    -0.14022    -0.01734     0.20105
 PY  C   2   0.00586    -0.07548     0.05920    -0.11225     0.10771     0.07769
 PZ  C   2   0.00211    -0.00478     0.00134    -0.00434    -0.00187     0.00447
  
  S  C   3   0.14664    -0.21383     0.09625    -0.14807     0.12706     0.16483
 PX  C   3  -0.06451     0.02238     0.16253     0.11767    -0.07210     0.08656
 PY  C   3  -0.08899    -0.02410     0.02968     0.09339     0.16700    -0.13435
 PZ  C   3  -0.00282     0.00036     0.00383     0.00646    -0.00479     0.00016
  
  S  C   4  -0.03142    -0.25704    -0.11704    -0.09542     0.07531    -0.17385
 PX  C   4   0.10361     0.03681     0.00402     0.18213     0.11706     0.03305
 PY  C   4  -0.02732     0.01987    -0.10826     0.11262    -0.18790    -0.06542
 PZ  C   4   0.00492    -0.00423    -0.00929     0.00935    -0.00310    -0.00671
  
  S  C   5  -0.27294    -0.09401     0.13222    -0.19665    -0.08285     0.04170
 PX  C   5   0.05413    -0.13784    -0.16024    -0.09694    -0.00171    -0.17782
 PY  C   5   0.02580    -0.08002    -0.09483    -0.02333    -0.12133    -0.07137
 PZ  C   5   0.01142    -0.00811    -0.01814    -0.00055    -0.00295    -0.01698
  
  S  C   6  -0.22915     0.23022     0.27158     0.17764     0.05396     0.17986
 PX  C   6   0.00791    -0.02126    -0.04895    -0.08017     0.03003    -0.07218
 PY  C   6  -0.10343    -0.09208     0.10323    -0.16629    -0.02080     0.11335
 PZ  C   6  -0.00122     0.00096    -0.00357    -0.00450     0.00198    -0.00852
  
  S  C   7  -0.14844    -0.02455     0.23762     0.04797    -0.17952     0.04641
 PX  C   7  -0.15333     0.11074    -0.07168     0.02395    -0.15596    -0.17217
 PY  C   7  -0.07983     0.07254     0.00308     0.10006     0.12800    -0.15246
 PZ  C   7  -0.00373     0.00210     0.00082     0.00094    -0.00977    -0.00132
  
  S  C   8   0.12107     0.02703    -0.19583     0.17985    -0.17503     0.04296
 PX  C   8   0.09208     0.18370     0.08060     0.08315     0.11227     0.16056
 PY  C   8   0.04160     0.08901     0.00802    -0.04258    -0.15624     0.13929
 PZ  C   8   0.00141     0.00399     0.00175    -0.00362    -0.00742     0.00654
  
  S  C   9   0.16459     0.29912     0.00921     0.00925     0.10809     0.14563
 PX  C   9  -0.05402     0.00610     0.05666    -0.20566     0.10564    -0.09217
 PY  C   9   0.11139     0.00765     0.02568    -0.12353    -0.19465     0.15840
 PZ  C   9   0.00617     0.00691     0.00083    -0.00148    -0.00403     0.00816
  
  S  C  10  -0.23787     0.19184    -0.01211     0.00697     0.05004    -0.20957
 PX  C  10  -0.06987    -0.03467    -0.15871    -0.14899    -0.11740    -0.02276
 PY  C  10   0.13567     0.05667    -0.06390    -0.07047     0.24016     0.05500
 PZ  C  10   0.00067     0.00123     0.00040    -0.00054    -0.00182     0.00133
  
  S  C  11  -0.15586    -0.03497    -0.26745    -0.06746    -0.14739     0.07441
 PX  C  11   0.14189    -0.11796    -0.01665     0.08036    -0.00900     0.22401
 PY  C  11   0.08326    -0.05559    -0.03447    -0.02807     0.20354     0.05889
 PZ  C  11   0.00152    -0.00154     0.00015    -0.00013     0.00420     0.00135
  
  S  H  12  -0.08409    -0.01828    -0.11516    -0.00001    -0.19759     0.06748
  
  S  C  13   0.14020     0.05400     0.18722    -0.19988    -0.18198     0.03116
 PX  C  13  -0.08146    -0.17082     0.04680     0.00230     0.06506    -0.21135
 PY  C  13  -0.05300    -0.10454     0.04585     0.07538    -0.17717    -0.05378
 PZ  C  13  -0.00214    -0.00381     0.00035     0.00337    -0.00233    -0.00340
  
  S  H  14  -0.07271    -0.01755     0.08805    -0.01997    -0.21121     0.05679
  
  S  H  15   0.04876     0.14206    -0.08119     0.19744    -0.04982    -0.11821
  
  S  H  16   0.13825     0.01223    -0.11408    -0.01308    -0.12768     0.00509
  
  S  H  17  -0.12789    -0.05384     0.04669    -0.08331    -0.11605     0.02676
  
  S  H  18  -0.12243     0.12635     0.17058     0.13443     0.01022     0.14181
  
  S  H  19   0.04582    -0.00520    -0.11741     0.03913    -0.21443     0.03818
  
  S  H  20   0.05854     0.01284     0.10197    -0.05857    -0.21416     0.04347
  
  S  C  21   0.28855     0.01213     0.21274     0.08360    -0.14556    -0.00132
 PX  C  21  -0.00427     0.14064     0.08324    -0.15459    -0.08398    -0.17577
 PY  C  21   0.00174     0.08037     0.05910    -0.05649     0.06195    -0.15220
 PZ  C  21  -0.00689    -0.00697    -0.00842     0.00636     0.00659     0.00912
  
  S  C  22   0.11556     0.29257     0.13167    -0.27397    -0.04479    -0.21597
 PX  C  22  -0.00553     0.01690     0.00239    -0.08624    -0.04662    -0.03873
 PY  C  22  -0.13897     0.05919    -0.16800    -0.09152     0.10217     0.09735
 PZ  C  22   0.00307     0.00333     0.00381     0.00289     0.00223    -0.00239
  
  S  C  23  -0.21368     0.23330    -0.25459    -0.17406     0.08779     0.18733
 PX  C  23   0.08492     0.10491     0.05051    -0.17979     0.00814    -0.07291
 PY  C  23  -0.07052    -0.03428    -0.09976     0.01501    -0.02345     0.14456
 PZ  C  23   0.00105    -0.01163     0.00426     0.01595    -0.00274    -0.00111
  
  S  C  24  -0.26364    -0.11170    -0.11694     0.18059    -0.08498     0.05720
 PX  C  24  -0.04905     0.14440    -0.15666    -0.06677     0.12276     0.17059
 PY  C  24  -0.03787     0.07380    -0.08667    -0.06784    -0.05413     0.12373
 PZ  C  24   0.00282    -0.00568     0.00581     0.00512    -0.00367    -0.00584
  
  S  H  25   0.13529    -0.00021     0.09086     0.03157    -0.13355     0.03879
  
  S  H  26   0.05202     0.14762     0.06533    -0.18188    -0.04925    -0.13027
  
  S  H  27  -0.11919     0.12898    -0.16705    -0.13210     0.03577     0.15433
  
  S  H  28  -0.12848    -0.06903    -0.03891     0.07837    -0.12453     0.02842
  
  S  C  29   0.13901    -0.23237    -0.07278     0.13761     0.13747     0.17248
 PX  C  29   0.10261     0.01138     0.10564     0.13811    -0.11729     0.07226
 PY  C  29   0.00924    -0.03502     0.12706     0.05944     0.11978    -0.16595
 PZ  C  29  -0.00086    -0.00325     0.00093     0.00265     0.00502    -0.00170
  
  S  C  30  -0.01912    -0.26495     0.12572     0.08053     0.05818    -0.19430
 PX  C  30  -0.03637    -0.05514    -0.07206     0.19591     0.08569     0.04427
 PY  C  30  -0.09695    -0.01802     0.05153     0.08132    -0.20541    -0.06035
 PZ  C  30  -0.00022     0.00234    -0.00018     0.00068    -0.00439     0.00144




    ROOT NO.   13          14          15          16          17          18

           -25.13053   -23.76664   -22.64509   -21.63134   -20.48413   -19.30075
  
  
  S  C   1  -0.02160    -0.13963     0.01142     0.18673    -0.04746     0.01484
 PX  C   1   0.01623     0.23650    -0.02301    -0.04173     0.21197     0.15737
 PY  C   1  -0.11713     0.01031     0.19526    -0.10401    -0.13797     0.18831
 PZ  C   1   0.00489     0.00212    -0.01062     0.01926     0.01119    -0.01039
  
  S  C   2   0.14614     0.17436    -0.12837    -0.14174     0.11016     0.00039
 PX  C   2   0.09615    -0.03150    -0.05473    -0.16838    -0.13062    -0.14932
 PY  C   2  -0.15261     0.00216     0.21359    -0.07158    -0.17325     0.08556
 PZ  C   2   0.00385    -0.00328    -0.00227     0.00083    -0.00681    -0.00795
  
  S  C   3  -0.08219    -0.10233     0.02874    -0.09142    -0.06927    -0.13303
 PX  C   3   0.16457    -0.14936    -0.15212     0.12327     0.00155     0.00674
 PY  C   3  -0.20489    -0.09021     0.02805     0.12591     0.15190    -0.07584
 PZ  C   3   0.00762    -0.01047    -0.00537     0.01024    -0.00529     0.00230
  
  S  C   4  -0.13800    -0.10307     0.02609     0.09516    -0.03198    -0.15979
 PX  C   4  -0.07967    -0.16269    -0.04848    -0.16391     0.10580    -0.07684
 PY  C   4   0.21432    -0.08484    -0.14392    -0.00707    -0.06993     0.01786
 PZ  C   4   0.00263    -0.01765    -0.00266    -0.00385    -0.01115    -0.00152
  
  S  C   5   0.14043     0.20360    -0.12835     0.11106     0.13504     0.03226
 PX  C   5  -0.10063    -0.02543     0.12750     0.16882    -0.18345    -0.02737
 PY  C   5   0.15021    -0.03209    -0.16967     0.10148    -0.01299    -0.17584
 PZ  C   5  -0.00545    -0.00994     0.00876     0.01616    -0.02111    -0.00216
  
  S  C   6   0.01342    -0.12272     0.00679    -0.15747    -0.04791    -0.00892
 PX  C   6  -0.10167     0.13649     0.15580     0.11607     0.00349     0.28015
 PY  C   6   0.09207     0.20916    -0.12050    -0.08616     0.25455     0.04354
 PZ  C   6  -0.00893     0.01193     0.01482     0.02097     0.00033     0.03305
  
  S  C   7   0.15136    -0.08133     0.04794     0.21287    -0.05238     0.15314
 PX  C   7   0.00156     0.15143     0.15555     0.05851     0.01621     0.13511
 PY  C   7  -0.13164     0.08782    -0.04179     0.01948     0.20663    -0.01251
 PZ  C   7   0.00725    -0.00045     0.00683     0.00965    -0.01025     0.01588
  
  S  C   8   0.11585    -0.10035     0.07274    -0.19324    -0.07331     0.14407
 PX  C   8  -0.09091     0.15576     0.06563    -0.09124     0.18665     0.09107
 PY  C   8   0.09427     0.08163     0.15499    -0.04364    -0.11295     0.15443
 PZ  C   8   0.00554     0.00142     0.01129    -0.00282    -0.01664     0.01738
  
  S  C   9  -0.00308     0.22774    -0.01217    -0.01845    -0.01162     0.00581
 PX  C   9   0.01201     0.04121    -0.12671     0.18387    -0.16413    -0.16694
 PY  C   9   0.02153    -0.05887     0.21930     0.10090    -0.07168    -0.07365
 PZ  C   9   0.00300     0.00223     0.00843     0.00065    -0.00596     0.01180
  
  S  C  10  -0.01281     0.21984    -0.05258     0.00013    -0.02075    -0.00047
 PX  C  10   0.01030    -0.04275     0.11641    -0.15382    -0.17096    -0.13542
 PY  C  10  -0.00012     0.06202    -0.20139    -0.09517    -0.10785    -0.08584
 PZ  C  10   0.00432    -0.00053     0.00268     0.00407    -0.00620     0.01247
  
  S  C  11  -0.14306    -0.10349     0.07611    -0.21219     0.06725    -0.15037
 PX  C  11  -0.08736    -0.14965    -0.05447     0.04257     0.19260     0.05958
 PY  C  11   0.07862    -0.07394    -0.17139     0.03872    -0.10630     0.12360
 PZ  C  11   0.00509    -0.00260    -0.00245     0.00463    -0.00513     0.01266
  
  S  H  12  -0.14078    -0.05373     0.12647    -0.11407     0.15421    -0.13709
  
  S  C  13  -0.10501    -0.10016     0.07535     0.21075     0.08614    -0.14752
 PX  C  13   0.01482    -0.15910    -0.17714    -0.07107     0.00641     0.13541
 PY  C  13  -0.11905    -0.09927     0.04889    -0.02270     0.22245    -0.00416
 PZ  C  13  -0.00073    -0.00500    -0.00110    -0.00351     0.00387     0.01105
  
  S  H  14   0.14921    -0.04400     0.09781     0.10747    -0.14020     0.12957
  
  S  H  15   0.04328    -0.15928    -0.09357     0.17259    -0.02536    -0.17560
  
  S  H  16   0.18793     0.07796    -0.20733    -0.07224     0.12613    -0.10088
  
  S  H  17   0.18839     0.08835    -0.19872     0.06641     0.10620    -0.08327
  
  S  H  18   0.07215    -0.14902    -0.10284    -0.16916    -0.02286    -0.21425
  
  S  H  19   0.14824    -0.06216     0.09118    -0.08258    -0.17171     0.13079
  
  S  H  20  -0.13109    -0.06529     0.11403     0.10881     0.17802    -0.11951
  
  S  C  21  -0.17509     0.16396    -0.12451     0.12535    -0.12203    -0.02066
 PX  C  21  -0.09281    -0.01058    -0.12967    -0.16037    -0.20146    -0.02287
 PY  C  21   0.16654     0.02907     0.16886    -0.11398    -0.01669    -0.16789
 PZ  C  21   0.00693    -0.00082     0.00692     0.00960     0.00976     0.00373
  
  S  C  22   0.01327    -0.14331     0.00299    -0.18366     0.04255     0.00879
 PX  C  22  -0.09365    -0.14109    -0.15902    -0.11267    -0.00448     0.25213
 PY  C  22   0.10317    -0.17277     0.10185     0.05093     0.25262     0.05770
 PZ  C  22   0.00776     0.01266     0.01397     0.00692    -0.00327    -0.02804
  
  S  C  23   0.01246    -0.10325    -0.00446     0.16090     0.05167    -0.00329
 PX  C  23   0.03480    -0.23611    -0.00340     0.00218     0.21584     0.18697
 PY  C  23  -0.13826    -0.01487    -0.20062     0.12877    -0.12379     0.18678
 PZ  C  23  -0.00159     0.02052     0.00251    -0.00464    -0.01792    -0.01878
  
  S  C  24  -0.15915     0.17121    -0.10306    -0.12609    -0.13531    -0.02784
 PX  C  24   0.09072     0.05702     0.06976     0.18133    -0.10542    -0.16792
 PY  C  24  -0.17516    -0.00974    -0.20017     0.06115    -0.13951     0.06320
 PZ  C  24  -0.00157     0.00235     0.00007    -0.00791     0.00073     0.00297
  
  S  H  25  -0.21233     0.06236    -0.19893     0.08051    -0.11086     0.08497
  
  S  H  26  -0.05080    -0.16271    -0.10410    -0.17162     0.01907     0.19540
  
  S  H  27  -0.05850    -0.13721    -0.12100     0.16560     0.02580     0.18936
  
  S  H  28  -0.21192     0.05809    -0.18389    -0.09857    -0.09663     0.08461
  
  S  C  29   0.10547    -0.09246     0.00869     0.09422     0.07705     0.14531
 PX  C  29  -0.09689     0.16515     0.05617     0.16870     0.10638    -0.06183
 PY  C  29   0.23995     0.08933     0.13527     0.03323    -0.07056     0.04165
 PZ  C  29   0.00850    -0.00070     0.00334     0.00338    -0.00095     0.01159
  
  S  C  30   0.13718    -0.11255     0.01599    -0.07963     0.04595     0.15027
 PX  C  30   0.13716     0.16286     0.15440    -0.09765    -0.00445     0.00348
 PY  C  30  -0.19747     0.07444    -0.01329    -0.12686     0.10879    -0.07069
 PZ  C  30  -0.00463     0.00028    -0.00114    -0.00064     0.00202     0.00533




    ROOT NO.   19          20          21          22          23          24

           -18.51313   -17.22632   -17.01228   -16.56231   -16.21813   -15.09240
  
  
  S  C   1  -0.16515     0.00514    -0.03424     0.10803     0.03253     0.03917
 PX  C   1   0.10640    -0.17042    -0.00260    -0.00516     0.14871     0.26861
 PY  C   1   0.12491     0.17189     0.00425    -0.07638     0.18324    -0.00288
 PZ  C   1  -0.03555    -0.02158    -0.00247     0.03076    -0.02103    -0.02066
  
  S  C   2   0.16757     0.02423    -0.00065    -0.06057     0.00208     0.02450
 PX  C   2   0.07705     0.19381     0.01843    -0.07311    -0.15250    -0.26437
 PY  C   2  -0.01272     0.12324    -0.12623     0.22447    -0.06969     0.21230
 PZ  C   2  -0.01240     0.00021     0.00111     0.01247    -0.01504    -0.01231
  
  S  C   3  -0.04300    -0.02493    -0.12472     0.18865    -0.08202     0.01841
 PX  C   3  -0.18551     0.00072    -0.02164     0.03797     0.23182    -0.10653
 PY  C   3  -0.04290    -0.27128     0.04468    -0.04476    -0.01902     0.01581
 PZ  C   3  -0.01313    -0.00637     0.00945    -0.00008     0.01166     0.00430
  
  S  C   4   0.05168    -0.05028     0.12974    -0.19794    -0.08220    -0.00998
 PX  C   4   0.13361    -0.18688    -0.00242     0.07370     0.08714     0.14653
 PY  C   4   0.08196     0.15461     0.06830    -0.10632     0.19442     0.00998
 PZ  C   4   0.01257    -0.00346    -0.00478     0.01002     0.01853     0.01167
  
  S  C   5  -0.18188    -0.00401     0.00059     0.06474    -0.00676    -0.07475
 PX  C   5  -0.02649     0.17200     0.06678    -0.19999    -0.11880    -0.12081
 PY  C   5  -0.09803     0.09101    -0.11343     0.17421    -0.18443     0.17957
 PZ  C   5  -0.01026     0.01658    -0.00472     0.00699    -0.00310    -0.01470
  
  S  C   6   0.15190     0.01672     0.03365    -0.10144     0.06177    -0.02775
 PX  C   6  -0.17777     0.04094     0.02000     0.05664     0.25953    -0.19195
 PY  C   6   0.01823    -0.23599     0.03526     0.01093     0.05895     0.00582
 PZ  C   6  -0.04312     0.00177    -0.00061     0.02917     0.03478    -0.05327
  
  S  C   7  -0.08573    -0.04924     0.02510    -0.06372     0.07045     0.04261
 PX  C   7   0.17284    -0.02726     0.10656    -0.17017    -0.16393     0.11134
 PY  C   7   0.12555    -0.04141    -0.25067     0.13733    -0.04081    -0.08135
 PZ  C   7  -0.00437    -0.00497     0.02788    -0.02235    -0.00017     0.02258
  
  S  C   8   0.10010    -0.03136    -0.00862     0.05452     0.08412     0.00315
 PX  C   8  -0.16533    -0.07485     0.13349    -0.00867    -0.13970    -0.09465
 PY  C   8  -0.04910    -0.00842    -0.22689     0.21625    -0.07826    -0.04470
 PZ  C   8   0.00393    -0.00331    -0.03366     0.03607     0.00595     0.00484
  
  S  C   9  -0.15830     0.11469     0.16392    -0.02891    -0.09610     0.03895
 PX  C   9   0.02448     0.13599    -0.03132    -0.03095     0.05539     0.12110
 PY  C   9  -0.05949    -0.22880     0.05946    -0.02039    -0.13433     0.05998
 PZ  C   9  -0.00216    -0.01075    -0.00077     0.01313    -0.00216     0.00682
  
  S  C  10   0.14277     0.13074    -0.19924     0.00857    -0.04734    -0.06754
 PX  C  10   0.05282    -0.12274    -0.04599     0.01991    -0.06171    -0.06741
 PY  C  10  -0.10778     0.22344     0.07834    -0.00653     0.10699     0.01234
 PZ  C  10  -0.00095    -0.00767     0.00928    -0.00622    -0.00102     0.01152
  
  S  C  11  -0.10770    -0.03183     0.02741     0.06051     0.07691    -0.03720
 PX  C  11  -0.19689     0.06438     0.14646    -0.01026     0.13281     0.08033
 PY  C  11  -0.05366    -0.03752    -0.28493    -0.17991     0.12576    -0.10514
 PZ  C  11   0.00134    -0.00748    -0.00467    -0.00858    -0.00177    -0.00108
  
  S  H  12  -0.08427     0.03041     0.29689     0.16111    -0.00394     0.09795
  
  S  C  13   0.09398    -0.04244    -0.02077    -0.03080     0.07865     0.01596
 PX  C  13   0.14827     0.07844     0.16331     0.17511     0.16810     0.10698
 PY  C  13   0.11246     0.01595    -0.27020    -0.07322     0.08918    -0.21260
 PZ  C  13   0.00765    -0.00274    -0.00279     0.01237     0.00620    -0.00308
  
  S  H  14  -0.06385    -0.00693     0.25914    -0.20654     0.00293     0.13111
  
  S  H  15  -0.21409    -0.04040    -0.01874     0.11375    -0.18694    -0.11115
  
  S  H  16   0.11707    -0.01106     0.10981    -0.23674    -0.00243    -0.26095
  
  S  H  17  -0.14769     0.01053    -0.12234     0.24973    -0.09551     0.15701
  
  S  H  18   0.22413    -0.03029     0.00151    -0.10296    -0.18609     0.16173
  
  S  H  19   0.08584     0.01289    -0.23779     0.19691     0.05650     0.01811
  
  S  H  20   0.07408    -0.03812    -0.28568    -0.14030     0.05185    -0.19026
  
  S  C  21   0.15636     0.01293     0.01777     0.06157     0.00671     0.01981
 PX  C  21  -0.03114    -0.21889     0.11315     0.14820     0.13108    -0.16637
 PY  C  21  -0.10294    -0.11994    -0.10969    -0.13011     0.14475     0.20211
 PZ  C  21   0.00882     0.01395     0.00229     0.00551    -0.00822    -0.00650
  
  S  C  22  -0.15331     0.00153    -0.05325    -0.09013     0.03495     0.05995
 PX  C  22  -0.12742    -0.08019    -0.00170    -0.07365    -0.24893    -0.11148
 PY  C  22   0.00126     0.28763    -0.00160    -0.00140    -0.06467    -0.02047
 PZ  C  22   0.01404     0.00562     0.00337     0.01496     0.03546     0.00652
  
  S  C  23   0.13666     0.02766     0.04862     0.08963     0.05140    -0.04702
 PX  C  23   0.07967     0.21157    -0.02671     0.00551    -0.16626     0.10759
 PY  C  23   0.15167    -0.19597     0.03593     0.05340    -0.16554    -0.03119
 PZ  C  23  -0.00846    -0.01688     0.00270     0.00218     0.02137    -0.01053
  
  S  C  24  -0.16492    -0.00950    -0.01689    -0.06582    -0.00502     0.00523
 PX  C  24   0.08810    -0.19599     0.06333     0.07219     0.18867    -0.12809
 PY  C  24  -0.02877    -0.12212    -0.14417    -0.19474     0.03973     0.25424
 PZ  C  24  -0.00542     0.00260     0.00122     0.00239    -0.00360    -0.00507
  
  S  H  25   0.13586     0.01905     0.14398     0.19304    -0.05135    -0.21660
  
  S  H  26  -0.17865    -0.06581    -0.02760    -0.10841    -0.19899    -0.07165
  
  S  H  27   0.20624    -0.04091     0.03827     0.08625    -0.16483     0.00003
  
  S  H  28  -0.13837     0.01050    -0.15337    -0.21081    -0.05502     0.24621
  
  S  C  29  -0.03957    -0.04892    -0.15571    -0.16891    -0.06667     0.03444
 PX  C  29   0.12383     0.24529    -0.01973    -0.03207    -0.10444     0.15511
 PY  C  29   0.12677    -0.14921     0.08321     0.06919    -0.21366    -0.00182
 PZ  C  29   0.00660    -0.00782     0.00507     0.00447    -0.01474    -0.00730
  
  S  C  30   0.06911    -0.03044     0.17336     0.16919    -0.08052    -0.06029
 PX  C  30  -0.14616    -0.04151    -0.07467    -0.07625    -0.23138    -0.16010
 PY  C  30  -0.06203     0.27313     0.04145     0.06668     0.02339    -0.05181
 PZ  C  30   0.00214     0.00047     0.00168     0.00664    -0.00188    -0.00473




    ROOT NO.   25          26          27          28          29          30

           -15.06244   -14.89074   -14.79742   -14.45133   -13.72148   -13.44777
  
  
  S  C   1   0.04947    -0.00171    -0.04719    -0.01834    -0.05280     0.02832
 PX  C   1  -0.16850    -0.02951    -0.16455    -0.02709    -0.08719     0.04355
 PY  C   1   0.03908    -0.24734    -0.04580     0.09176    -0.09781     0.13193
 PZ  C   1   0.01604     0.12277     0.03016     0.09237    -0.03432    -0.20952
  
  S  C   2  -0.01236    -0.08619    -0.02830     0.04464     0.02376    -0.00380
 PX  C   2   0.15064    -0.01507     0.15819     0.05024     0.11621    -0.05925
 PY  C   2   0.12139    -0.02126    -0.21999     0.03059     0.02871    -0.11887
 PZ  C   2   0.01143     0.10654     0.01672     0.14683    -0.04245    -0.20251
  
  S  C   3  -0.00044     0.04378     0.03154    -0.01915    -0.03558    -0.00122
 PX  C   3  -0.05447    -0.07221     0.12769    -0.04741    -0.19244     0.14546
 PY  C   3  -0.16715     0.11644     0.07411    -0.07099    -0.00706     0.08454
 PZ  C   3  -0.01226     0.13744     0.00831     0.25870    -0.08041    -0.20252
  
  S  C   4  -0.04346     0.03923    -0.01335    -0.02816    -0.00660     0.01819
 PX  C   4   0.03526     0.07861    -0.10472    -0.04582    -0.22000    -0.00826
 PY  C   4   0.10922    -0.13202    -0.08997     0.03024    -0.20752    -0.00294
 PZ  C   4  -0.02560     0.12358     0.01984     0.26211    -0.09483    -0.20327
  
  S  C   5   0.08269     0.02001     0.02766     0.00748     0.02851    -0.00277
 PX  C   5  -0.07576    -0.09997     0.07567     0.02910     0.21044     0.04148
 PY  C   5   0.10164    -0.18511    -0.22357     0.07535     0.06692     0.10667
 PZ  C   5  -0.00130     0.06703     0.02434     0.15392    -0.05001    -0.16912
  
  S  C   6  -0.04501    -0.02930     0.03843     0.00614    -0.04355     0.01338
 PX  C   6   0.13869     0.01295     0.13408    -0.03387    -0.15977     0.03899
 PY  C   6  -0.08651     0.24767     0.07713    -0.09901    -0.04827    -0.13459
 PZ  C   6   0.03840     0.08690     0.05047     0.09969    -0.07746    -0.17441
  
  S  C   7  -0.07729    -0.01503    -0.03356    -0.01836     0.05110     0.02036
 PX  C   7   0.01740     0.03008    -0.14652     0.03252     0.22721    -0.11738
 PY  C   7  -0.13879    -0.22566     0.17756     0.10021     0.11378     0.02516
 PZ  C   7  -0.00582     0.13294    -0.02647     0.25204    -0.03491    -0.09796
  
  S  C   8   0.03303     0.06511     0.01255    -0.02352     0.00680    -0.02545
 PX  C   8   0.24065     0.05331    -0.08630     0.00532     0.22187     0.06203
 PY  C   8  -0.20385     0.04711     0.20267    -0.05200     0.21744    -0.01064
 PZ  C   8  -0.06190     0.11340     0.04873     0.25020    -0.02824    -0.09581
  
  S  C   9   0.02292    -0.01119    -0.00590    -0.00836     0.01413     0.00921
 PX  C   9  -0.25640    -0.06173     0.08820     0.01188    -0.22036    -0.05029
 PY  C   9  -0.15502    -0.00363     0.05459    -0.06116    -0.07504     0.13404
 PZ  C   9  -0.03594     0.12349     0.01705     0.31452    -0.01099     0.04187
  
  S  C  10  -0.01154     0.00661     0.00583     0.00959    -0.01309    -0.03926
 PX  C  10   0.11064     0.24031    -0.05773    -0.14399    -0.22019     0.12073
 PY  C  10   0.08156     0.09129    -0.04249    -0.02245    -0.14776    -0.06214
 PZ  C  10  -0.02062     0.13147    -0.01162     0.31336    -0.01681     0.03714
  
  S  C  11   0.04983     0.00588     0.02097    -0.00721    -0.02392     0.04297
 PX  C  11  -0.10166    -0.21229     0.04071     0.12234     0.22472    -0.08814
 PY  C  11  -0.04230     0.17133    -0.21406    -0.07742     0.16958     0.02388
 PZ  C  11  -0.01679     0.09280    -0.01995     0.22703     0.00326     0.14767
  
  S  H  12   0.01866    -0.20856     0.18510     0.09455    -0.06227    -0.03967
  
  S  C  13  -0.02233    -0.05619    -0.01753     0.03408    -0.02776    -0.02641
 PX  C  13   0.06903     0.06334     0.08383    -0.00434     0.24822    -0.07809
 PY  C  13   0.24189    -0.01108    -0.16091     0.04263     0.04065    -0.07958
 PZ  C  13  -0.01198     0.08393     0.00309     0.23904     0.01476     0.14164
  
  S  H  14   0.07919     0.18304    -0.20902    -0.04359     0.03184    -0.07466
  
  S  H  15   0.07995     0.21851     0.09550    -0.05267     0.09433    -0.14807
  
  S  H  16  -0.04434    -0.02420     0.22435     0.01569     0.04276     0.07164
  
  S  H  17   0.14221    -0.10852    -0.19155     0.04997    -0.00788     0.07758
  
  S  H  18  -0.15413    -0.03149    -0.10293     0.01678     0.13527    -0.00943
  
  S  H  19  -0.24338     0.04028     0.19048    -0.02313     0.05509    -0.06113
  
  S  H  20   0.15136    -0.05346    -0.15970     0.04928    -0.08129    -0.04670
  
  S  C  21   0.06119     0.08067     0.03629    -0.03266    -0.01768     0.03857
 PX  C  21   0.03868    -0.00942    -0.10339     0.00060     0.15151     0.09142
 PY  C  21   0.25740    -0.07138     0.22512     0.06166     0.07722    -0.02154
 PZ  C  21  -0.02026     0.05955    -0.01489     0.13211     0.00491     0.23691
  
  S  C  22  -0.01905    -0.01584     0.02106     0.01258     0.04244    -0.01372
 PX  C  22  -0.15595    -0.19291    -0.09981     0.09508    -0.16842    -0.09768
 PY  C  22  -0.22967     0.15863    -0.11683    -0.08075    -0.03208     0.05374
 PZ  C  22   0.01231     0.06585     0.00195     0.09551     0.04267     0.23900
  
  S  C  23   0.00901     0.03902    -0.03787    -0.00822     0.04668     0.01835
 PX  C  23   0.11931     0.19026     0.14972    -0.10088    -0.06044     0.17118
 PY  C  23   0.21780    -0.14200     0.11472     0.05522    -0.10311    -0.03797
 PZ  C  23  -0.01660     0.02501    -0.01854     0.11971     0.02707     0.20959
  
  S  C  24  -0.11595    -0.00702    -0.03948    -0.00145    -0.02241    -0.00280
 PX  C  24  -0.06882    -0.16569    -0.14867     0.10621     0.09289    -0.14174
 PY  C  24   0.10284     0.00614     0.17488     0.01987     0.08475     0.02613
 PZ  C  24  -0.01301     0.04722    -0.00697     0.14465     0.01171     0.23434
  
  S  H  25  -0.16227     0.08877    -0.20192    -0.06677    -0.01170     0.07309
  
  S  H  26  -0.15129    -0.19194    -0.08051     0.08630    -0.14686    -0.12697
  
  S  H  27   0.22931    -0.01084     0.13873    -0.01401    -0.09157     0.03876
  
  S  H  28   0.05862     0.08836     0.17617    -0.04020     0.00232     0.09232
  
  S  C  29   0.02125    -0.04782    -0.00362     0.02891     0.02458    -0.03170
 PX  C  29  -0.01511     0.04579     0.12800    -0.01487    -0.16902    -0.06577
 PY  C  29   0.10368    -0.10752     0.10624     0.02241    -0.19485     0.02025
 PZ  C  29  -0.01695     0.07748    -0.01298     0.23580     0.00153     0.27649
  
  S  C  30   0.01812    -0.03072     0.01623     0.01162     0.03302     0.01688
 PX  C  30  -0.03050    -0.05480    -0.08506    -0.00759    -0.23509     0.07704
 PY  C  30  -0.09946     0.12092    -0.06197    -0.06807    -0.02394    -0.00384
 PZ  C  30  -0.01751     0.07885    -0.00654     0.24092     0.01399     0.27248




    ROOT NO.   31          32          33          34          35          36

           -13.09676   -12.99528   -12.16718   -11.81012   -11.72050   -11.40321
  
  
  S  C   1  -0.00405    -0.00324     0.01361    -0.00710    -0.02435    -0.00010
 PX  C   1   0.21908     0.06586    -0.06476     0.05855    -0.07854    -0.12043
 PY  C   1  -0.11639     0.23560     0.13285    -0.05975     0.09488    -0.09876
 PZ  C   1  -0.02789     0.03891    -0.14242     0.13163     0.20524    -0.15156
  
  S  C   2  -0.02556     0.02631    -0.03490     0.03916     0.01336     0.02923
 PX  C   2  -0.21925    -0.07642     0.02648    -0.02915     0.07352     0.15057
 PY  C   2   0.02006    -0.15205    -0.18286     0.12895    -0.04841     0.12500
 PZ  C   2  -0.01967     0.10419    -0.10997     0.10688     0.15509    -0.14337
  
  S  C   3  -0.01544    -0.02299     0.01231    -0.00733    -0.01998    -0.01312
 PX  C   3   0.13146     0.09869    -0.06608     0.10929    -0.18376    -0.16579
 PY  C   3   0.02138     0.10983     0.24174    -0.21505     0.10466    -0.11933
 PZ  C   3   0.00963     0.20052    -0.04438     0.04592     0.03472    -0.09426
  
  S  C   4   0.02203     0.00727     0.00931     0.00274     0.01420     0.01568
 PX  C   4  -0.21445    -0.05880     0.12426    -0.11044     0.18016     0.16398
 PY  C   4  -0.04308    -0.05724    -0.21650     0.22404    -0.08244     0.13628
 PZ  C   4  -0.01354     0.19632    -0.02438     0.02050     0.06424    -0.08313
  
  S  C   5  -0.01748     0.00385    -0.01779     0.02643    -0.03807    -0.02744
 PX  C   5   0.22174     0.07475    -0.09859     0.08918    -0.16235    -0.15271
 PY  C   5  -0.06902     0.18129     0.13643    -0.07667     0.04834    -0.08043
 PZ  C   5  -0.02923     0.14740    -0.06561     0.07167     0.17717    -0.17671
  
  S  C   6  -0.00939     0.01952     0.00615    -0.00223     0.01812     0.00684
 PX  C   6  -0.20518    -0.05683     0.08486    -0.06724     0.03991     0.13029
 PY  C   6   0.09245    -0.23186    -0.14597     0.07364    -0.05600     0.11134
 PZ  C   6  -0.08866     0.07658    -0.08542     0.09230     0.24164    -0.15409
  
  S  C   7   0.03672     0.03913    -0.02077     0.05506     0.00901     0.01446
 PX  C   7  -0.12660    -0.07311     0.04732    -0.07127     0.18905     0.17738
 PY  C   7  -0.13650     0.08594    -0.11755     0.18429    -0.01533     0.12378
 PZ  C   7   0.02096     0.12379     0.03664    -0.03897    -0.09892     0.06857
  
  S  C   8  -0.05221    -0.04613    -0.00663     0.03618    -0.03684    -0.00408
 PX  C   8  -0.03927     0.10511     0.02534     0.07862    -0.15442    -0.18268
 PY  C   8   0.13702    -0.01139     0.11057    -0.16339     0.03364    -0.13175
 PZ  C   8   0.02960     0.12406     0.06213    -0.07685    -0.08598     0.03154
  
  S  C   9   0.05797     0.02204    -0.00231     0.00994     0.01541    -0.01283
 PX  C   9   0.08362    -0.07288    -0.01126    -0.10730     0.16933     0.18639
 PY  C   9  -0.19128     0.16038    -0.00295     0.26839     0.01355     0.11835
 PZ  C   9   0.02079     0.05865     0.10031    -0.07209    -0.25097     0.17108
  
  S  C  10   0.01211    -0.05289     0.00470    -0.01023    -0.00524     0.00196
 PX  C  10  -0.07361     0.05107     0.10265     0.10733    -0.16055    -0.18441
 PY  C  10   0.24183    -0.12121     0.04893    -0.26056     0.00448    -0.12320
 PZ  C  10   0.02053     0.05900     0.08171    -0.06261    -0.24449     0.19973
  
  S  C  11   0.05502     0.04664     0.02662     0.05348    -0.01890    -0.01130
 PX  C  11   0.10286    -0.00898    -0.07372    -0.06499     0.16327     0.18522
 PY  C  11   0.01248     0.09432     0.11779     0.17049     0.08145     0.09646
 PZ  C  11   0.00953    -0.05483     0.03692    -0.01590    -0.11848     0.12809
  
  S  H  12   0.05934    -0.05885    -0.13004    -0.17680    -0.00227    -0.01765
  
  S  C  13  -0.06991    -0.03965     0.01782     0.04762    -0.01016     0.01938
 PX  C  13  -0.11467    -0.09388     0.11811     0.04802    -0.12197    -0.18643
 PY  C  13   0.14900    -0.08408    -0.05276    -0.19371    -0.03786    -0.11573
 PZ  C  13   0.01899    -0.07137     0.06259    -0.03218    -0.13907     0.08508
  
  S  H  14   0.07360    -0.07444     0.12132    -0.19783     0.10966    -0.01021
  
  S  H  15  -0.02571    -0.22570    -0.09347     0.03514    -0.01627     0.13170
  
  S  H  16  -0.12071     0.11135     0.16864    -0.12495     0.09236    -0.03579
  
  S  H  17  -0.15727     0.12417     0.16869    -0.11388     0.10114    -0.01704
  
  S  H  18   0.20637     0.04506    -0.07167     0.05266    -0.06809    -0.10196
  
  S  H  19   0.10159    -0.06995     0.08585    -0.18663     0.09446    -0.01176
  
  S  H  20   0.13789    -0.05347    -0.09802    -0.19303     0.01517    -0.01686
  
  S  C  21   0.00700     0.01111     0.02637     0.02672    -0.01005    -0.02773
 PX  C  21   0.10971     0.17860    -0.18609    -0.08360     0.10999     0.14809
 PY  C  21   0.15327    -0.02388     0.13676     0.11241     0.06974     0.04745
 PZ  C  21  -0.00749    -0.16262    -0.07750     0.04311     0.16907    -0.11271
  
  S  C  22  -0.02922    -0.00210    -0.00819    -0.00476    -0.00495     0.01175
 PX  C  22  -0.04981    -0.20721     0.11477     0.04877    -0.02673    -0.11310
 PY  C  22  -0.20951     0.02730    -0.15478    -0.11351    -0.07876    -0.06620
 PZ  C  22   0.01403    -0.13098    -0.10653     0.06226     0.25795    -0.14646
  
  S  C  23  -0.00118     0.00779    -0.01729    -0.00632     0.00750    -0.01729
 PX  C  23   0.10048     0.17265    -0.10894    -0.01670     0.09214     0.09619
 PY  C  23   0.22811    -0.03852     0.16860     0.11607     0.06966     0.04551
 PZ  C  23   0.00058    -0.18319    -0.06360     0.08218     0.24725    -0.17947
  
  S  C  24  -0.03534    -0.00490     0.01883     0.02961     0.01275     0.02409
 PX  C  24  -0.10728    -0.17701     0.06668    -0.00864    -0.08835    -0.12913
 PY  C  24  -0.22290    -0.02002    -0.20366    -0.16423    -0.10916    -0.11415
 PZ  C  24   0.01713    -0.17557    -0.03735     0.07265     0.18487    -0.11531
  
  S  H  25  -0.07811     0.10794    -0.20179    -0.13887    -0.02012     0.01562
  
  S  H  26  -0.06312    -0.19522     0.12689     0.04189    -0.05790    -0.10034
  
  S  H  27   0.23931     0.06706     0.09063     0.08244     0.08925     0.09627
  
  S  H  28  -0.13109     0.07500    -0.20205    -0.13117    -0.03635    -0.01349
  
  S  C  29  -0.03131    -0.02975    -0.00376     0.00121     0.01396     0.01159
 PX  C  29  -0.07748    -0.16895     0.20995     0.10749    -0.11083    -0.15644
 PY  C  29  -0.05053    -0.02162    -0.21773    -0.23001    -0.10008    -0.11023
 PZ  C  29   0.00551    -0.17777    -0.02882     0.01284     0.02717     0.00810
  
  S  C  30   0.03077     0.01884    -0.00376     0.00831    -0.00416    -0.01068
 PX  C  30   0.18554     0.10395    -0.12141    -0.07890     0.12787     0.16827
 PY  C  30   0.15057     0.02808     0.27102     0.24737     0.09263     0.09540
 PZ  C  30   0.01766    -0.18724     0.00867     0.03229     0.02754    -0.00523




    ROOT NO.   37          38          39          40          41          42

           -10.60595    -9.80113    -9.56055    -8.28864    -8.05035    -6.69814
  
  
  S  C   1  -0.00441    -0.01976     0.00913    -0.00897    -0.01516    -0.00954
 PX  C   1  -0.00558     0.03164     0.00312    -0.00438     0.01684     0.00039
 PY  C   1   0.03099     0.06478    -0.04501     0.04037     0.04335     0.03228
 PZ  C   1   0.08867     0.32628    -0.19834     0.21516     0.27380     0.20753
  
  S  C   2  -0.00401     0.00655     0.00026    -0.00064     0.00812    -0.00042
 PX  C   2  -0.00686    -0.03559     0.01119    -0.00998    -0.01718    -0.00965
 PY  C   2  -0.02677    -0.02365     0.02011    -0.01285    -0.00616    -0.00818
 PZ  C   2   0.21403     0.10331    -0.32805     0.36061     0.01802     0.23173
  
  S  C   3   0.01387    -0.01107    -0.00185    -0.00960    -0.00976    -0.01149
 PX  C   3   0.00163     0.01804     0.00471    -0.00551     0.02430     0.00737
 PY  C   3   0.01999     0.03232    -0.01062     0.00366     0.00662     0.00528
 PZ  C   3   0.24871    -0.25531    -0.19698     0.07286    -0.32795    -0.15966
  
  S  C   4  -0.00297     0.01580    -0.00806     0.00496     0.01948    -0.00330
 PX  C   4   0.01042     0.00921    -0.02041     0.00684     0.01207    -0.00844
 PY  C   4  -0.01785    -0.01346    -0.00210     0.00270     0.01268    -0.00645
 PZ  C   4  -0.23104    -0.22305     0.24242    -0.03142    -0.34819     0.13063
  
  S  C   5  -0.01730    -0.00883     0.02560    -0.02326    -0.01225    -0.01305
 PX  C   5   0.00903     0.00161    -0.00742     0.01420     0.00542     0.01549
 PY  C   5   0.01400     0.01705    -0.01863     0.02063     0.00993     0.01527
 PZ  C   5  -0.21630     0.17089     0.29830    -0.35510    -0.00919    -0.23198
  
  S  C   6   0.00719     0.00609    -0.01029     0.00870     0.00461     0.00520
 PX  C   6   0.02699    -0.07331    -0.03180     0.04665    -0.04526     0.03086
 PY  C   6  -0.01627    -0.03423     0.01676    -0.01195    -0.01757    -0.00863
 PZ  C   6  -0.10737     0.36008     0.13212    -0.24550     0.25470    -0.18745
  
  S  C   7  -0.01735     0.01067     0.00547     0.00940     0.00153     0.01353
 PX  C   7  -0.03105     0.00190     0.00888     0.01302    -0.01130     0.01285
 PY  C   7   0.02637    -0.02895    -0.01071    -0.01311    -0.00547    -0.02305
 PZ  C   7   0.36484    -0.21767    -0.15512    -0.20288    -0.00432    -0.36438
  
  S  C   8  -0.00600    -0.01247     0.00610     0.00355    -0.00113     0.00787
 PX  C   8  -0.01902    -0.00981     0.01709     0.00569     0.00142     0.01434
 PY  C   8   0.06879     0.03932    -0.02856    -0.02568     0.00482    -0.04178
 PZ  C   8  -0.35392    -0.19877     0.20469     0.19033    -0.01819     0.36760
  
  S  C   9   0.00354     0.00434     0.00786    -0.00777    -0.01801     0.00641
 PX  C   9   0.00255     0.00725    -0.01129     0.00450     0.00609    -0.00224
 PY  C   9  -0.00388    -0.01600     0.00091    -0.00126    -0.01264    -0.00114
 PZ  C   9  -0.28958    -0.02029    -0.02151     0.20382     0.37017     0.00369
  
  S  C  10   0.00809    -0.00362    -0.00572    -0.00406     0.00140    -0.00958
 PX  C  10  -0.00131    -0.00199     0.00255    -0.00090     0.00275     0.00482
 PY  C  10   0.00458     0.02413    -0.00173     0.00077     0.01151     0.00464
 PZ  C  10   0.26964    -0.00843     0.02475    -0.24540     0.35136     0.02284
  
  S  C  11   0.00621     0.00426     0.00552     0.00005    -0.00105     0.00355
 PX  C  11  -0.00035     0.00610     0.00045     0.00194    -0.00564    -0.00311
 PY  C  11  -0.01925    -0.00500    -0.00179     0.01282    -0.00792    -0.01242
 PZ  C  11   0.31153     0.23334     0.21270    -0.21065    -0.00325     0.38734
  
  S  H  12   0.00682     0.00271    -0.00468    -0.00317     0.00571    -0.00209
  
  S  C  13  -0.00603    -0.00323    -0.00141     0.00731     0.00387    -0.00545
 PX  C  13   0.02518    -0.00620     0.01691    -0.00930    -0.00360     0.01186
 PY  C  13   0.01097     0.00283     0.00718    -0.00954    -0.00205     0.01115
 PZ  C  13  -0.32055     0.18194    -0.25017     0.21015     0.03706    -0.37819
  
  S  H  14  -0.00800     0.01259    -0.00041     0.00310     0.00013    -0.00294
  
  S  H  15  -0.01278    -0.03359     0.01141    -0.00280    -0.01180     0.00161
  
  S  H  16   0.02138     0.01061    -0.01643     0.01166     0.00083     0.00727
  
  S  H  17   0.01535     0.00950    -0.02052     0.02247     0.00483     0.01593
  
  S  H  18  -0.00766     0.02374     0.00787    -0.00693     0.01110    -0.00045
  
  S  H  19   0.03348     0.01556    -0.01273    -0.00594     0.00117    -0.00669
  
  S  H  20  -0.00209     0.00542    -0.00310    -0.00321     0.00357     0.00376
  
  S  C  21   0.00974    -0.00199     0.01776     0.01596     0.00108    -0.01005
 PX  C  21  -0.00687     0.00830     0.00447     0.01069    -0.00727    -0.00727
 PY  C  21   0.01242     0.00068     0.02126     0.01614    -0.00268    -0.00807
 PZ  C  21   0.17528    -0.06657     0.37295     0.35415     0.02083    -0.22336
  
  S  C  22  -0.00214     0.01329    -0.00606    -0.00572    -0.01303     0.00526
 PX  C  22   0.01948    -0.04881     0.03575     0.02918     0.03969    -0.02257
 PY  C  22  -0.00549    -0.00197    -0.00644     0.00004     0.00225    -0.00434
 PZ  C  22   0.08443    -0.31085     0.22349     0.21103     0.26779    -0.17698
  
  S  C  23  -0.00541    -0.01928    -0.01214    -0.01746     0.01173     0.01323
 PX  C  23  -0.01809    -0.02230    -0.02455    -0.02291     0.01563     0.01634
 PY  C  23   0.00550    -0.00586     0.00741     0.00231     0.00401     0.00137
 PZ  C  23  -0.07236    -0.35514    -0.16095    -0.24030     0.22721     0.18998
  
  S  C  24  -0.00057     0.00007     0.00295     0.00563     0.00148    -0.00343
 PX  C  24   0.00709    -0.00209     0.00067    -0.00409    -0.00543     0.00062
 PY  C  24  -0.00292    -0.00045    -0.01151    -0.00963    -0.00506     0.00201
 PZ  C  24  -0.16530    -0.14101    -0.34848    -0.34500    -0.04513     0.21261
  
  S  H  25  -0.01404     0.00472    -0.01952    -0.01302    -0.00108     0.00674
  
  S  H  26   0.01195    -0.01531     0.01450     0.00955     0.01276    -0.00649
  
  S  H  27   0.00063     0.00703     0.00545     0.00761    -0.00395    -0.00483
  
  S  H  28  -0.00738     0.00205    -0.01048    -0.00494    -0.00080     0.00097
  
  S  C  29  -0.00481    -0.01035     0.00010     0.00123     0.00553    -0.00086
 PX  C  29   0.01511    -0.00517     0.00706    -0.00154     0.00438     0.00214
 PY  C  29  -0.00391    -0.01123    -0.01596    -0.01099     0.01903     0.00007
 PZ  C  29   0.19135     0.30763     0.22768     0.06910    -0.33605     0.13117
  
  S  C  30  -0.00330     0.00605    -0.00865    -0.00479    -0.01157    -0.00285
 PX  C  30  -0.01634     0.00520    -0.01098     0.00280     0.00154    -0.00278
 PY  C  30   0.00455    -0.00322     0.01292     0.00812     0.00383    -0.00043
 PZ  C  30  -0.18412     0.25629    -0.26961    -0.02447    -0.34473    -0.14794




    ROOT NO.   43          44          45          46          47          48

            -1.04323     0.19974     0.31093     1.22216     1.32220     1.82424
  
  
  S  C   1   0.01556     0.02551     0.01665    -0.02344    -0.03694     0.01236
 PX  C   1  -0.00463    -0.00325    -0.00508     0.00560     0.00383    -0.00629
 PY  C   1  -0.02656    -0.03652    -0.02387     0.02589     0.04141    -0.01055
 PZ  C   1  -0.20795    -0.29116    -0.19053     0.21060     0.32177    -0.09783
  
  S  C   2  -0.01336    -0.00315    -0.01321     0.00731     0.00558     0.00278
 PX  C   2  -0.00207     0.00484    -0.00409     0.00098    -0.00637     0.00081
 PY  C   2  -0.00576     0.00209    -0.00557     0.00211    -0.00061     0.00111
 PZ  C   2   0.22653     0.05924     0.35198    -0.32307    -0.09624     0.22331
  
  S  C   3   0.01090     0.00349     0.00624    -0.00314    -0.00048    -0.00058
 PX  C   3  -0.01666    -0.01408    -0.00625    -0.00770     0.01142     0.01655
 PY  C   3   0.00388    -0.01277     0.00192     0.00771     0.01416    -0.00587
 PZ  C   3   0.15420     0.32583    -0.10723     0.17937    -0.26892    -0.25005
  
  S  C   4  -0.00754     0.02101    -0.00905    -0.00293    -0.02648    -0.00511
 PX  C   4   0.00713     0.01364     0.01476    -0.02087    -0.00100     0.02008
 PY  C   4  -0.00654     0.01318    -0.00180    -0.01141    -0.00766     0.01237
 PZ  C   4   0.14241    -0.34106    -0.00012     0.26024     0.21311    -0.25837
  
  S  C   5   0.01569     0.00421     0.02821    -0.03076     0.01012     0.03631
 PX  C   5  -0.02040    -0.00960    -0.02755     0.02331    -0.00300    -0.01403
 PY  C   5  -0.01015    -0.00511    -0.01103     0.00778    -0.00012    -0.00446
 PZ  C   5   0.22992     0.03057     0.35575    -0.28239     0.18084     0.22813
  
  S  C   6  -0.00392    -0.00625    -0.00906     0.01406     0.00405    -0.01643
 PX  C   6   0.02770    -0.03603     0.03637    -0.01070     0.05542     0.01019
 PY  C   6   0.00708     0.00590     0.00315    -0.00081    -0.01082    -0.00512
 PZ  C   6  -0.19005     0.23236    -0.27159     0.11236    -0.36984    -0.11345
  
  S  C   7   0.00737    -0.00472     0.00659     0.01461    -0.00641    -0.02523
 PX  C   7   0.02229     0.00763     0.01400     0.00651    -0.01609    -0.01881
 PY  C   7  -0.02134    -0.00230    -0.01177    -0.00674     0.01146     0.02744
 PZ  C   7  -0.35698    -0.03668    -0.20368    -0.13525     0.21936     0.36334
  
  S  C   8  -0.00625     0.00177     0.00511    -0.00120     0.00931    -0.00214
 PX  C   8  -0.01488     0.01023    -0.00436    -0.00503    -0.00809     0.00696
 PY  C   8   0.03444     0.00988     0.01784     0.01829     0.00739    -0.03622
 PZ  C   8  -0.35604    -0.01407    -0.20406    -0.19562    -0.17903     0.36094
  
  S  C   9   0.00501    -0.02628    -0.01110     0.00437    -0.00721     0.00321
 PX  C   9   0.00189     0.00403     0.00237    -0.00274    -0.00096    -0.00376
 PY  C   9  -0.00851    -0.00928    -0.00712    -0.00851     0.00117     0.00407
 PZ  C   9  -0.00777     0.39506     0.17406    -0.03463     0.01020    -0.27618
  
  S  C  10   0.00259     0.00964     0.00221    -0.00886     0.00327    -0.00821
 PX  C  10  -0.00278    -0.00650    -0.00483    -0.00256    -0.00037    -0.00376
 PY  C  10   0.00838     0.00457     0.00687     0.00508     0.00021    -0.01388
 PZ  C  10  -0.02552    -0.32062     0.29544    -0.03188    -0.00391    -0.28919
  
  S  C  11  -0.00491    -0.00301    -0.00230     0.00647     0.00175     0.01610
 PX  C  11   0.00389     0.00496     0.00431     0.00374     0.00053    -0.00273
 PY  C  11  -0.01513     0.00254     0.00892    -0.00471     0.00949    -0.00919
 PZ  C  11   0.38878    -0.02504    -0.20219     0.21081    -0.23313     0.29934
  
  S  H  12   0.00081     0.00176     0.00487    -0.00038     0.00090    -0.00985
  
  S  C  13   0.00204     0.01191    -0.00002     0.00868     0.00840     0.02148
 PX  C  13  -0.00773     0.00079     0.00656     0.00387    -0.00347    -0.00229
 PY  C  13  -0.00553    -0.00618     0.00257    -0.00203    -0.00594    -0.00617
 PZ  C  13   0.37870    -0.05468    -0.20112     0.26217     0.16381     0.30061
  
  S  H  14  -0.00556     0.00253    -0.00477    -0.00916     0.00971     0.02379
  
  S  H  15  -0.00711    -0.02273    -0.00902     0.01870     0.03607    -0.01041
  
  S  H  16   0.00380    -0.00750     0.00473     0.00161     0.00814    -0.00452
  
  S  H  17  -0.00913    -0.01089    -0.01625     0.02280     0.00385    -0.02495
  
  S  H  18  -0.00296    -0.00472     0.00129    -0.00268     0.00882     0.00695
  
  S  H  19   0.00183    -0.00007    -0.00188    -0.00203    -0.00593     0.00826
  
  S  H  20  -0.00118    -0.00419     0.00468    -0.00196    -0.00529    -0.01361
  
  S  C  21  -0.01343     0.00008     0.02049     0.02338     0.00284     0.01011
 PX  C  21  -0.00743     0.00404     0.01142     0.01378     0.00265     0.00700
 PY  C  21  -0.00645     0.00124     0.00806     0.00737     0.00181     0.00256
 PZ  C  21  -0.22687     0.05889     0.34062     0.37855     0.05719     0.16710
  
  S  C  22  -0.00736     0.00657     0.00597     0.00262    -0.00160    -0.00037
 PX  C  22   0.02098    -0.02949    -0.01996    -0.02463    -0.02827    -0.00880
 PY  C  22  -0.00477    -0.00775     0.01036     0.01107    -0.01276     0.00735
 PZ  C  22   0.19007    -0.28739    -0.18919    -0.24473    -0.30959    -0.08142
  
  S  C  23   0.01450     0.01193    -0.02345    -0.02067     0.03058    -0.01411
 PX  C  23   0.01482     0.01767    -0.01739    -0.00661     0.02788    -0.00152
 PY  C  23   0.00083     0.00628    -0.00133     0.00028     0.00832    -0.00081
 PZ  C  23   0.19008     0.21188    -0.24463    -0.13343     0.37078    -0.06896
  
  S  C  24  -0.00100     0.00033     0.00771     0.01277    -0.00978     0.01156
 PX  C  24  -0.01088    -0.00856     0.01376     0.00860    -0.01837     0.00326
 PY  C  24  -0.00508    -0.00599     0.00284    -0.00218    -0.00732    -0.00262
 PZ  C  24  -0.22447     0.05446     0.33864     0.33986    -0.17749     0.15971
  
  S  H  25   0.00597     0.00038    -0.00945    -0.01007    -0.00102    -0.00318
  
  S  H  26   0.00395    -0.00489    -0.00167     0.00157     0.00032     0.00254
  
  S  H  27  -0.00798    -0.00542     0.01438     0.01425    -0.01767     0.00995
  
  S  H  28   0.00124     0.00073    -0.00358    -0.00401     0.00677    -0.00320
  
  S  C  29   0.00942     0.00015    -0.00703    -0.00431    -0.00450    -0.00059
 PX  C  29   0.00323    -0.00447    -0.01051    -0.01542    -0.00294    -0.00753
 PY  C  29   0.00704    -0.00734     0.00092     0.01349    -0.00616     0.01589
 PZ  C  29  -0.13374     0.33216    -0.10315    -0.22543     0.31857    -0.18646
  
  S  C  30  -0.00521    -0.01477    -0.00395    -0.01972    -0.00814    -0.01928
 PX  C  30   0.00161     0.00077    -0.00234    -0.00272     0.00467     0.00249
 PY  C  30   0.00341     0.00509    -0.00305    -0.00090     0.00534    -0.00124
 PZ  C  30  -0.15070    -0.34225    -0.00601    -0.30073    -0.23455    -0.18445




    ROOT NO.   49          50          51          52          53          54

             2.31163     2.44723     2.82212     3.10264     3.23493     3.36743
  
  
  S  C   1  -0.01274     0.14920     0.21195    -0.10621     0.21015    -0.02703
 PX  C   1   0.01314     0.02396     0.02369    -0.00203     0.01184    -0.07743
 PY  C   1   0.04420    -0.00299     0.03727     0.02592     0.03134     0.06243
 PZ  C   1   0.28807    -0.12545     0.07119     0.17237     0.11711     0.00122
  
  S  C   2  -0.03424    -0.17997    -0.25144     0.08529    -0.20609     0.14896
 PX  C   2  -0.01365    -0.01733    -0.00057    -0.01287     0.03341     0.04428
 PY  C   2  -0.01180    -0.04640    -0.04142     0.00740    -0.00817     0.02845
 PZ  C   2  -0.22711     0.11399    -0.05131    -0.21204    -0.10966    -0.02224
  
  S  C   3   0.06734     0.23401     0.27792    -0.05612     0.13090    -0.14659
 PX  C   3   0.00667     0.00080    -0.06516     0.01637    -0.07380    -0.09582
 PY  C   3   0.01729     0.01430     0.01132     0.01974    -0.04899     0.10839
 PZ  C   3   0.07543    -0.07633     0.01849     0.28882     0.12387     0.05968
  
  S  C   4  -0.08302    -0.20468    -0.26595     0.00987    -0.04350    -0.19093
 PX  C   4   0.00021    -0.03039     0.01898     0.00919     0.05515     0.09013
 PY  C   4   0.00097     0.01866     0.06472    -0.02756     0.09522    -0.09374
 PZ  C   4  -0.06890     0.07397    -0.02054    -0.28145    -0.12226    -0.05506
  
  S  C   5   0.05811     0.14387     0.23376    -0.00646     0.10670     0.26752
 PX  C   5   0.00895     0.05489     0.04220    -0.00711    -0.03148     0.02866
 PY  C   5  -0.00164    -0.00400    -0.01697     0.00754    -0.02926    -0.00081
 PZ  C   5   0.21244    -0.15230    -0.00018     0.21191     0.07924    -0.00923
  
  S  C   6  -0.02764    -0.11486    -0.20271     0.04074    -0.16340    -0.17840
 PX  C   6   0.03290    -0.05981    -0.04699     0.03690    -0.01667    -0.02482
 PY  C   6  -0.02048     0.00001    -0.00061    -0.03384     0.04159    -0.08659
 PZ  C   6  -0.28363     0.15596    -0.03572    -0.18220    -0.09202    -0.00381
  
  S  C   7  -0.08913    -0.22258    -0.14009    -0.01370     0.06814     0.25844
 PX  C   7  -0.01522     0.01777     0.08834    -0.03388     0.10208     0.02576
 PY  C   7  -0.01430    -0.04222     0.02339    -0.03586     0.05559     0.03463
 PZ  C   7   0.11923    -0.04714     0.00698    -0.15333    -0.06517    -0.05437
  
  S  C   8   0.09820     0.19987     0.13009     0.07164    -0.17934     0.17945
 PX  C   8   0.02553     0.03789    -0.05283     0.04867    -0.12053    -0.00205
 PY  C   8   0.00023    -0.03372    -0.06339    -0.00006    -0.04974    -0.03286
 PZ  C   8  -0.13404     0.02915    -0.02750     0.14284     0.06881     0.03875
  
  S  C   9  -0.14451    -0.24471    -0.02103    -0.13971     0.35759    -0.10620
 PX  C   9  -0.01010    -0.02386     0.06777    -0.01216     0.02934     0.06891
 PY  C   9   0.00370     0.03534     0.03609     0.01279    -0.04169    -0.16280
 PZ  C   9   0.30644    -0.15078     0.06556    -0.01244    -0.00790    -0.08345
  
  S  C  10   0.12376     0.26285     0.01008     0.10406    -0.25821    -0.27080
 PX  C  10  -0.00142    -0.00201    -0.08322    -0.00269     0.05674    -0.06239
 PY  C  10   0.02296     0.01807    -0.03768     0.04282    -0.09939     0.10237
 PZ  C  10  -0.30576     0.13830    -0.06144     0.01093     0.03380     0.08433
  
  S  C  11  -0.10653    -0.23829     0.13240    -0.06906     0.05364     0.27173
 PX  C  11   0.00974     0.02837     0.07310     0.02568    -0.11782    -0.05381
 PY  C  11  -0.02863    -0.04066     0.06311    -0.00538    -0.04667     0.00866
 PZ  C  11   0.13876    -0.07648     0.05722     0.14614     0.00659    -0.06621
  
  S  H  12   0.05771     0.13064    -0.08043     0.04833    -0.05466    -0.13725
  
  S  C  13   0.11458     0.21127    -0.10586     0.09525    -0.19397     0.24201
 PX  C  13   0.00901     0.01394    -0.08496    -0.01610     0.08507     0.04319
 PY  C  13  -0.02645    -0.04631    -0.01965    -0.02659     0.07792    -0.00752
 PZ  C  13  -0.15238     0.07391    -0.05309    -0.15003    -0.00830     0.04443
  
  S  H  14   0.05545     0.11935     0.08972     0.01174    -0.06707    -0.12283
  
  S  H  15   0.02273    -0.10498    -0.13348     0.08272    -0.13180     0.02861
  
  S  H  16   0.02791     0.09643     0.15658    -0.04706     0.13437    -0.06920
  
  S  H  17  -0.02459    -0.08589    -0.14683     0.01384    -0.08529    -0.15411
  
  S  H  18   0.02774     0.06180     0.12023    -0.01471     0.09768     0.11230
  
  S  H  19  -0.05140    -0.10894    -0.07259    -0.03511     0.10687    -0.05674
  
  S  H  20  -0.05952    -0.11903     0.06424    -0.05648     0.11390    -0.10937
  
  S  C  21  -0.09808    -0.16822     0.24651     0.01968    -0.23990     0.12407
 PX  C  21   0.01796     0.06411    -0.04261     0.02996    -0.01218    -0.04501
 PY  C  21  -0.01109    -0.00673     0.02594     0.01530    -0.04260    -0.01076
 PZ  C  21  -0.21013     0.06964     0.01125     0.25936     0.07253    -0.05372
  
  S  C  22   0.07476     0.12286    -0.22226    -0.04197     0.28280    -0.04303
 PX  C  22   0.01334    -0.03104     0.02461    -0.02355    -0.01179    -0.00989
 PY  C  22   0.00030    -0.02384     0.01515    -0.01134    -0.01140     0.08431
 PZ  C  22   0.30105    -0.09133    -0.01993    -0.25063    -0.04848     0.02836
  
  S  C  23  -0.08832    -0.09215     0.18088     0.04586    -0.17545    -0.15040
 PX  C  23  -0.00854     0.02868    -0.01254     0.02886    -0.03594     0.07969
 PY  C  23   0.00684     0.02854    -0.04677    -0.00133     0.06683    -0.02736
 PZ  C  23  -0.29814     0.10562    -0.00462     0.25144     0.07574    -0.00424
  
  S  C  24   0.09008     0.13214    -0.19016    -0.00521     0.08257     0.23715
 PX  C  24   0.00494    -0.02771     0.00240    -0.03198     0.04912    -0.02560
 PY  C  24  -0.02219    -0.05255     0.04913    -0.01820     0.01058    -0.05098
 PZ  C  24   0.22428    -0.06854    -0.01906    -0.27177    -0.05891     0.01418
  
  S  H  25   0.05346     0.08995    -0.14469    -0.01228     0.14475    -0.04503
  
  S  H  26  -0.05044    -0.08291     0.14830     0.03024    -0.19313     0.04236
  
  S  H  27   0.05270     0.05292    -0.10248    -0.02699     0.09327     0.09982
  
  S  H  28  -0.04970    -0.07133     0.11534     0.01019    -0.07127    -0.11602
  
  S  C  29   0.11899     0.24238    -0.26657     0.03344     0.13425    -0.12444
 PX  C  29  -0.00131    -0.02528    -0.02521    -0.03182     0.09178    -0.03743
 PY  C  29   0.00599    -0.00011    -0.04217     0.00370     0.01584     0.15688
 PZ  C  29   0.05309     0.01425    -0.06245    -0.32053    -0.05303     0.06902
  
  S  C  30  -0.11328    -0.21498     0.23336    -0.04537    -0.00868    -0.23048
 PX  C  30   0.00054     0.00798     0.04970     0.02964    -0.10099     0.06203
 PY  C  30   0.01187     0.03954    -0.03085     0.01045     0.01918    -0.10992
 PZ  C  30  -0.04629     0.00096     0.04613     0.32905     0.05355    -0.03736




    ROOT NO.   55          56          57          58          59          60

             3.56841     3.64095     3.72966     3.82983     4.21360     4.25523
  
  
  S  C   1  -0.04863    -0.26051    -0.31254    -0.12898    -0.05760    -0.01476
 PX  C   1  -0.00976     0.04296     0.09901    -0.11817    -0.08068     0.04790
 PY  C   1  -0.01615    -0.01679    -0.05048     0.07707     0.03312     0.00121
 PZ  C   1  -0.11935     0.00064    -0.05051    -0.04004     0.00072    -0.01655
  
  S  C   2   0.05120     0.08497    -0.01979     0.31126     0.20368    -0.10312
 PX  C   2  -0.01358    -0.11356    -0.18193     0.02123     0.00587    -0.02075
 PY  C   2  -0.00582    -0.04651    -0.07730    -0.02214    -0.06561     0.03720
 PZ  C   2   0.15403    -0.04504     0.02124     0.02696    -0.00294     0.01280
  
  S  C   3  -0.00392     0.13534     0.31484    -0.14821     0.01564    -0.04269
 PX  C   3  -0.00025     0.02055    -0.03679     0.00687     0.12722    -0.14574
 PY  C   3   0.03996     0.08786     0.09670     0.16556     0.05972     0.01100
 PZ  C   3  -0.26482     0.10627    -0.02343    -0.02417     0.00700    -0.02132
  
  S  C   4  -0.06118    -0.17681    -0.29321    -0.16065     0.02160    -0.09692
 PX  C   4  -0.01502    -0.03962    -0.06823     0.14827     0.11505    -0.05357
 PY  C   4  -0.02341     0.01435     0.10438    -0.07048     0.07192    -0.09013
 PZ  C   4   0.26043    -0.11905    -0.00405     0.03209     0.01989    -0.01643
  
  S  C   5   0.01761     0.00591    -0.01771     0.34309     0.20115    -0.06542
 PX  C   5   0.03750     0.09635     0.16870    -0.00302    -0.04768     0.03497
 PY  C   5   0.01208     0.05069     0.06772     0.03069     0.03587    -0.01237
 PZ  C   5  -0.14722     0.05732     0.00015    -0.06153    -0.02914     0.01036
  
  S  C   6   0.02868     0.19361     0.30239    -0.16728    -0.07493     0.02435
 PX  C   6  -0.01511     0.01850     0.01304    -0.02426    -0.01992     0.01510
 PY  C   6  -0.02091    -0.09210    -0.09901    -0.14928    -0.08582     0.01596
 PZ  C   6   0.11354    -0.02107     0.02835     0.02639    -0.00254     0.00969
  
  S  C   7   0.01151    -0.13940    -0.06405     0.08009    -0.24531     0.31720
 PX  C   7  -0.00382     0.02133     0.14279    -0.05862    -0.05261     0.03468
 PY  C   7   0.02712    -0.01200     0.07845    -0.02497     0.03035    -0.06766
 PZ  C   7   0.23919    -0.11285     0.01556     0.02028    -0.02111     0.04644
  
  S  C   8   0.05793     0.15206     0.01756     0.06966    -0.24996     0.28513
 PX  C   8  -0.00821    -0.01141    -0.12588    -0.06499    -0.03040    -0.04737
 PY  C   8   0.01309    -0.04722    -0.09680    -0.03565    -0.03967     0.01992
 PZ  C   8  -0.24299     0.10155    -0.02001    -0.03059    -0.01051     0.00768
  
  S  C   9  -0.03187    -0.08357     0.22248     0.03672     0.16873     0.00404
 PX  C   9   0.03136     0.05546     0.04542     0.06018    -0.09359     0.15462
 PY  C   9  -0.02421     0.07334    -0.08740     0.04897     0.10713     0.07998
 PZ  C   9   0.30343    -0.13738     0.04013     0.02291     0.02358     0.00047
  
  S  C  10  -0.05025     0.09042    -0.22949     0.00446     0.12879    -0.01615
 PX  C  10  -0.04300    -0.07044     0.01417     0.08616     0.05021     0.16960
 PY  C  10   0.01555    -0.00993    -0.09144     0.01787    -0.14383     0.09686
 PZ  C  10  -0.30182     0.13090    -0.02365    -0.01790    -0.00021    -0.02207
  
  S  C  11   0.12279     0.10197     0.03582    -0.14447    -0.17291    -0.30381
 PX  C  11   0.01114     0.08529    -0.11967    -0.06598     0.02727    -0.04238
 PY  C  11   0.00678     0.05874    -0.05442    -0.03608     0.04759     0.04256
 PZ  C  11   0.21571    -0.08728     0.01111     0.01068     0.00216     0.01847
  
  S  H  12  -0.08143    -0.07851    -0.02991     0.08504     0.14174     0.28249
  
  S  C  13  -0.00985    -0.13110     0.01320    -0.13565    -0.15957    -0.28935
 PX  C  13  -0.02246    -0.11850     0.12311    -0.04142     0.06719     0.00865
 PY  C  13  -0.00542    -0.03961     0.06205    -0.02485     0.01940    -0.05799
 PZ  C  13  -0.22633     0.09842    -0.02024     0.00081    -0.00438     0.00983
  
  S  H  14   0.01441     0.10690     0.04567    -0.03542     0.20174    -0.29618
  
  S  H  15   0.02434     0.17781     0.21260     0.08059     0.00816     0.04345
  
  S  H  16  -0.03296    -0.05450     0.02252    -0.21637    -0.19651     0.12415
  
  S  H  17  -0.00716     0.00607     0.01797    -0.24233    -0.19368     0.08837
  
  S  H  18  -0.02144    -0.11453    -0.18309     0.09391     0.01995     0.00897
  
  S  H  19  -0.03467    -0.09896    -0.00527    -0.02572     0.18606    -0.24833
  
  S  H  20   0.01778     0.09047    -0.00750     0.07537     0.12214     0.26874
  
  S  C  21  -0.03655    -0.04425    -0.01199    -0.22687     0.26237     0.15806
 PX  C  21  -0.07496    -0.15434     0.10588     0.04236     0.04723     0.03939
 PY  C  21  -0.04317    -0.07832     0.04960     0.03084    -0.03872    -0.03046
 PZ  C  21   0.14598    -0.03598     0.00320     0.02074    -0.02021    -0.00912
  
  S  C  22   0.18429     0.30412    -0.17602     0.04998    -0.09488    -0.03802
 PX  C  22  -0.00421     0.02994    -0.02275     0.00852     0.00147     0.02018
 PY  C  22   0.04820     0.06462    -0.04777    -0.13534     0.13414     0.07054
 PZ  C  22  -0.10978     0.03921    -0.00794     0.00497    -0.01091    -0.00890
  
  S  C  23  -0.18248    -0.23954     0.14060     0.20136    -0.14083    -0.05216
 PX  C  23  -0.00856    -0.07579     0.04758    -0.09798     0.11980     0.06679
 PY  C  23   0.03943     0.06563    -0.03839     0.03964    -0.04785    -0.01364
 PZ  C  23   0.14142    -0.00283    -0.01340    -0.02887     0.01665     0.00490
  
  S  C  24   0.08672    -0.00086     0.01946    -0.28319     0.29090     0.15492
 PX  C  24   0.05141     0.12469    -0.08106    -0.00437     0.00116     0.00095
 PY  C  24   0.03153     0.10005    -0.07455    -0.00375     0.04364     0.03041
 PZ  C  24  -0.15768     0.03920    -0.00332     0.02138    -0.01473    -0.00538
  
  S  H  25   0.03153     0.02683     0.01338     0.13870    -0.22256    -0.16005
  
  S  H  26  -0.12392    -0.21638     0.12881    -0.03784     0.04215    -0.00792
  
  S  H  27   0.10319     0.13182    -0.07612    -0.12170     0.06195     0.00116
  
  S  H  28  -0.05811    -0.01898    -0.00041     0.17384    -0.23148    -0.14614
  
  S  C  29  -0.10859    -0.24698     0.18926     0.17934    -0.01826     0.05631
 PX  C  29   0.04384     0.09047    -0.03574     0.08907    -0.13985    -0.09506
 PY  C  29   0.02628    -0.06855     0.07651    -0.09322    -0.03609    -0.11844
 PZ  C  29  -0.24142     0.08458    -0.01189    -0.00652     0.00068    -0.00553
  
  S  C  30   0.05331     0.28224    -0.21290     0.13099    -0.04601     0.04777
 PX  C  30   0.00140     0.00228    -0.02849    -0.02244    -0.11135    -0.13757
 PY  C  30  -0.06311    -0.07824     0.05503     0.15215    -0.09442    -0.01367
 PZ  C  30   0.24466    -0.10996     0.03175    -0.01296     0.00902    -0.00153




    ROOT NO.   61          62          63          64          65          66

             5.22092     5.42831     5.51562     5.72980     6.08939     6.44167
  
  
  S  C   1   0.13528    -0.18891    -0.17564     0.03838    -0.03867    -0.00681
 PX  C   1  -0.12589     0.12765     0.03069    -0.11636     0.09296     0.02940
 PY  C   1  -0.04395     0.16312     0.27636     0.05975    -0.00949    -0.00518
 PZ  C   1   0.02820    -0.05842    -0.07983    -0.00843    -0.00136    -0.00007
  
  S  C   2   0.15762    -0.14395    -0.02080     0.13742    -0.10408    -0.03907
 PX  C   2   0.11713    -0.14620    -0.11580     0.04829    -0.04330    -0.01267
 PY  C   2  -0.07131     0.12011     0.07132    -0.12083     0.16821     0.11510
 PZ  C   2  -0.00775     0.01429     0.01947     0.00314    -0.00110    -0.00082
  
  S  C   3  -0.03428    -0.02708    -0.01726     0.07971    -0.14246    -0.10067
 PX  C   3   0.11899    -0.03634     0.08075     0.02692     0.09034     0.08711
 PY  C   3   0.06197    -0.09216    -0.03765     0.12239    -0.16278    -0.10029
 PZ  C   3   0.01806    -0.01137    -0.00117     0.00251     0.00702     0.00879
  
  S  C   4   0.00856     0.05431     0.04070    -0.10796     0.17278     0.09665
 PX  C   4  -0.11178     0.07455    -0.04949    -0.11022     0.06278     0.01678
 PY  C   4  -0.10485     0.03522    -0.00712     0.03656    -0.14864    -0.12306
 PZ  C   4  -0.01926     0.01552     0.00268    -0.01508     0.01078     0.00313
  
  S  C   5  -0.14149     0.07604    -0.10787    -0.16363     0.10177     0.02560
 PX  C   5   0.01078    -0.06251    -0.04033     0.08937    -0.14379    -0.07509
 PY  C   5  -0.06458    -0.02653    -0.22944    -0.19672     0.16457     0.07586
 PZ  C   5   0.02387    -0.02458    -0.00889     0.01914    -0.01671    -0.00577
  
  S  C   6  -0.03701    -0.11410    -0.31928    -0.14604     0.06631     0.02079
 PX  C   6   0.01888     0.07324     0.21628     0.11430    -0.06446    -0.02084
 PY  C   6   0.11959    -0.11654    -0.01942     0.10836    -0.08243    -0.02104
 PZ  C   6  -0.01202     0.03123     0.05250     0.01476    -0.00713    -0.00234
  
  S  C   7  -0.17250     0.04539    -0.11507    -0.03540    -0.10372    -0.10128
 PX  C   7  -0.04640    -0.03536    -0.06479     0.03867    -0.11167    -0.09477
 PY  C   7   0.07298    -0.05877     0.07139     0.06314     0.11926     0.27050
 PZ  C   7  -0.02469     0.00823    -0.01445    -0.00364    -0.01892    -0.02626
  
  S  C   8   0.24087    -0.10661     0.04116     0.03639     0.12428     0.12808
 PX  C   8  -0.03799     0.03564    -0.01457    -0.07580    -0.02352    -0.10801
 PY  C   8   0.08307    -0.02866     0.00494    -0.04603     0.17715     0.17441
 PZ  C   8   0.01053    -0.00370    -0.00109    -0.00167     0.01076     0.01103
  
  S  C   9   0.00577    -0.02784     0.02078     0.10480     0.01447     0.12610
 PX  C   9   0.17235    -0.06996     0.04732     0.02181     0.10697     0.12132
 PY  C   9   0.08429     0.06479     0.01540    -0.10057     0.02256    -0.21944
 PZ  C   9  -0.00749     0.00202    -0.00011     0.00576    -0.00175     0.00258
  
  S  C  10  -0.01445     0.09902    -0.01273    -0.10169    -0.03221    -0.21543
 PX  C  10  -0.12315     0.01242    -0.05376     0.08347    -0.06650     0.09431
[...]
  S   H   18   -0.0990   -0.0325    0.0428   -0.0711   -0.0102    0.3084    0.0024    0.1042
  S   H   19   -0.1898   -0.2170   -0.1314    0.2329   -0.2219    0.0487   -0.0117    0.1915
  S   H   20    0.1473   -0.2435   -0.2111   -0.0383   -0.2599   -0.0072    0.0571   -0.1618
  S   C   21    0.1235   -0.0489    0.0159    0.0049    0.0089    0.0007    0.0813    0.0439
  Px  C   21    0.1253   -0.0916    0.2981    0.2085   -0.0160    0.0009   -0.0820   -0.0222
  Py  C   21   -0.1306    0.0869   -0.1157   -0.0852   -0.0056    0.0029    0.3301    0.1612
  Pz  C   21   -0.0155    0.0063   -0.0067   -0.0045    0.0008   -0.0002   -0.0105   -0.0058
  S   C   22    0.0384   -0.0174   -0.0531   -0.0323    0.0024   -0.0012   -0.1348   -0.0465
  Px  C   22    0.0373   -0.0255   -0.0810   -0.0534   -0.0056    0.0052    0.4820    0.1314
  Py  C   22    0.1232   -0.0397    0.0628    0.0394   -0.0040    0.0009   -0.0157    0.0540
  Pz  C   22   -0.0018    0.0016   -0.0012   -0.0006    0.0010   -0.0006   -0.0578   -0.0162
  S   C   23   -0.1132    0.0272   -0.0679   -0.0419   -0.0002    0.0005    0.0726   -0.0263
  Px  C   23   -0.1537    0.0546    0.0157    0.0098   -0.0119   -0.0020   -0.1747    0.1117
  Py  C   23   -0.0457    0.0089   -0.0769   -0.0486   -0.0035   -0.0036   -0.4406    0.0221
  Pz  C   23    0.0252   -0.0076    0.0090    0.0057    0.0005    0.0002    0.0152   -0.0069
  S   C   24   -0.1562    0.0512    0.0123    0.0026    0.0081   -0.0003   -0.0569    0.0623
  Px  C   24    0.0943   -0.0268    0.0643    0.0436   -0.0133   -0.0016   -0.1602    0.1116
  Py  C   24   -0.2122    0.1519    0.2872    0.1835    0.0001   -0.0009    0.2275   -0.1898
  Pz  C   24   -0.0035    0.0004   -0.0045   -0.0031    0.0014    0.0000   -0.0005   -0.0014
  S   H   25   -0.1923    0.1116   -0.2037   -0.1411   -0.0022    0.0014    0.1966    0.0862
  S   H   26   -0.0484    0.0311    0.0647    0.0404    0.0052   -0.0032   -0.2757   -0.0747
  S   H   27    0.1702   -0.0513    0.0569    0.0348    0.0086    0.0028    0.3039   -0.0419
  S   H   28    0.2640   -0.1330   -0.1764   -0.1100   -0.0098    0.0001   -0.1737    0.1303
  S   C   29    0.1429   -0.1008    0.2386    0.1734   -0.0413   -0.0012    0.0296    0.0216
  Px  C   29   -0.0917    0.0394    0.0872    0.0719   -0.0347    0.0028   -0.1320   -0.0565
  Py  C   29    0.1329   -0.1684   -0.1196   -0.0734    0.0584   -0.0034   -0.0466   -0.0451
  Pz  C   29    0.0091   -0.0064   -0.0001    0.0006    0.0004   -0.0002   -0.0009   -0.0005
  S   C   30   -0.1552    0.1412    0.2323    0.1516   -0.0362    0.0006   -0.0054    0.0156
  Px  C   30   -0.0621    0.0972   -0.0473   -0.0434    0.0252    0.0011    0.0869   -0.1825
  Py  C   30    0.1487   -0.0883    0.1375    0.1134   -0.0614   -0.0033    0.0971   -0.0809
  Pz  C   30    0.0102   -0.0083   -0.0107   -0.0067    0.0005   -0.0001    0.0001   -0.0005


   Root No.      73        74        75        76        77        78        79        80

                73 A      74 A      75 A      76 A      77 A      78 A      79 A      80 A   

                 9.402     9.507    10.058    10.725    10.942    11.628    11.746    12.154
  
  S   C    1   -0.0331   -0.0539   -0.0483   -0.0528    0.0474    0.0110    0.0046    0.0031
  Px  C    1    0.0139   -0.1590    0.0911   -0.2262   -0.1701   -0.1704    0.1103    0.1869
  Py  C    1   -0.1326   -0.0787   -0.2109    0.0039    0.2373    0.1380   -0.0625   -0.1203
  Pz  C    1    0.0132    0.0100    0.0206    0.0017   -0.0235   -0.0137    0.0064    0.0123
  S   C    2   -0.0413    0.0557   -0.0814    0.0536    0.0964    0.0558    0.0016   -0.0080
  Px  C    2   -0.0153   -0.1674    0.0157   -0.2316   -0.0650   -0.1158    0.1226    0.1948
  Py  C    2   -0.1603    0.0961   -0.2180   -0.0035    0.1979    0.0653    0.0935    0.1059
  Pz  C    2   -0.0050   -0.0060   -0.0055   -0.0091    0.0032   -0.0022    0.0056    0.0078
  S   C    3    0.0160    0.0401   -0.0038    0.0680    0.0326    0.0314   -0.0053   -0.0078
  Px  C    3   -0.2123    0.0937   -0.2467   -0.0286    0.0124   -0.1543   -0.1790   -0.1446
  Py  C    3   -0.0831   -0.0172   -0.1466   -0.0473    0.2552    0.1448    0.2835    0.3057
  Pz  C    3   -0.0062    0.0018   -0.0086   -0.0033    0.0031   -0.0033   -0.0044   -0.0022
  S   C    4   -0.0098    0.0500    0.0060    0.0533   -0.0388   -0.0175    0.0074    0.0121
  Px  C    4    0.0851    0.1336    0.2052   -0.1658   -0.1631   -0.0527   -0.1480   -0.2261
  Py  C    4    0.0872    0.1029    0.1018    0.0093    0.1531    0.2188    0.3067    0.2715
  Pz  C    4    0.0052    0.0125    0.0130   -0.0049   -0.0064    0.0016    0.0049   -0.0009
  S   C    5   -0.0016    0.0905    0.0528    0.0192   -0.0905   -0.0511   -0.0043    0.0039
  Px  C    5    0.0670    0.0455    0.1380   -0.2000   -0.0675   -0.0085   -0.1470   -0.2413
  Py  C    5    0.0420   -0.2767   -0.0634   -0.1623    0.1817    0.1158   -0.0503   -0.1275
  Pz  C    5    0.0041   -0.0094    0.0013   -0.0148    0.0082    0.0069   -0.0094   -0.0173
  S   C    6    0.0369   -0.0506    0.0485   -0.0806   -0.0278   -0.0159   -0.0050   -0.0158
  Px  C    6    0.1898   -0.1826    0.1904   -0.2227   -0.0903   -0.0436   -0.0057   -0.0248
  Py  C    6   -0.0463   -0.1388   -0.1615   -0.0890    0.2931    0.2006   -0.1269   -0.2450
  Pz  C    6    0.0271   -0.0313    0.0264   -0.0374   -0.0104   -0.0049   -0.0032   -0.0076
  S   C    7    0.1228   -0.0169    0.0847    0.0762    0.0352    0.0847    0.0033    0.0236
  Px  C    7   -0.1238    0.1034   -0.1590    0.0434    0.0376   -0.0689   -0.1880   -0.1426
  Py  C    7    0.3262    0.0047    0.1214    0.2278    0.1028    0.1528   -0.1086   -0.0005
  Pz  C    7   -0.0194    0.0042   -0.0119   -0.0073   -0.0034   -0.0099   -0.0034   -0.0055
  S   C    8   -0.0634   -0.0294   -0.0586    0.0743   -0.0692   -0.0752   -0.0133   -0.0156
  Px  C    8   -0.1307    0.0750   -0.0078    0.1907   -0.1736   -0.0810    0.1748    0.0563
  Py  C    8    0.1512    0.1317    0.1539   -0.1175    0.0919    0.1448    0.1166    0.0977
  Pz  C    8    0.0223    0.0114    0.0182   -0.0181    0.0176    0.0204    0.0073    0.0083
  S   C    9    0.0041   -0.0432   -0.0300    0.0033   -0.0040   -0.0319   -0.0106    0.0053
  Px  C    9   -0.1870    0.0526   -0.0476    0.2253   -0.2460   -0.1424    0.1558    0.0446
  Py  C    9   -0.1012   -0.0099    0.1113    0.1105   -0.1255    0.3027   -0.2983    0.0920
  Pz  C    9   -0.0023   -0.0033    0.0003    0.0007   -0.0028    0.0049   -0.0096    0.0004
  S   C   10   -0.0027   -0.0312    0.0310   -0.0071   -0.0006    0.0186    0.0168    0.0063
  Px  C   10    0.3132   -0.0113   -0.0374    0.2705    0.1450   -0.1823    0.1621   -0.0961
  Py  C   10    0.1654    0.0528    0.1137    0.1309    0.0911    0.3042   -0.3057    0.0063
  Pz  C   10    0.0025    0.0008    0.0010    0.0001    0.0006    0.0008    0.0012    0.0002
  S   C   11   -0.1034   -0.0281    0.0666   -0.0727   -0.0232    0.0855    0.0051   -0.0011
  Px  C   11    0.2098   -0.0442    0.0190    0.2180    0.1055   -0.1076    0.1888   -0.1086
  Py  C   11   -0.2918   -0.1509    0.2054   -0.0948   -0.0057    0.1621    0.1077   -0.0873
  Pz  C   11   -0.0095   -0.0046    0.0057   -0.0029   -0.0007    0.0045    0.0024   -0.0020
  S   H   12   -0.2073   -0.0687    0.1021   -0.0933   -0.0328    0.1157    0.0074   -0.0209
  S   C   13    0.0628   -0.0555   -0.0626   -0.0666    0.0550   -0.0818   -0.0062    0.0120
  Px  C   13    0.0570   -0.2092   -0.1347    0.0196   -0.0614   -0.0718   -0.1940    0.1664
  Py  C   13   -0.1815    0.1067    0.1158    0.2068   -0.1720    0.1716   -0.0950    0.0350
  Pz  C   13   -0.0043   -0.0025   -0.0004    0.0070   -0.0073    0.0036   -0.0073    0.0050
  S   H   14    0.1932   -0.0256    0.0998    0.0901    0.0466    0.0996    0.0007    0.0428
  S   H   15   -0.0617   -0.0919   -0.0748   -0.0697    0.0637    0.0159    0.0045   -0.0013
  S   H   16   -0.0809    0.0852   -0.1163    0.0512    0.1199    0.0653    0.0203    0.0085
  S   H   17   -0.0020    0.1499    0.0694    0.0278   -0.1129   -0.0646   -0.0152   -0.0000
  S   H   18    0.1259   -0.1120    0.1258   -0.1357   -0.0637   -0.0320   -0.0032   -0.0111
  S   H   19   -0.1213   -0.0389   -0.0791    0.1071   -0.1014   -0.1049   -0.0032   -0.0374
  S   H   20    0.1103   -0.1107   -0.0954   -0.0903    0.0708   -0.1138    0.0010    0.0259
  S   C   21    0.0390    0.0803   -0.0818   -0.0453   -0.0764    0.0623    0.0051    0.0116
  Px  C   21   -0.1339   -0.0212    0.1688   -0.1356    0.1435   -0.0444   -0.1117    0.2010
  Py  C   21    0.0609    0.2885   -0.1368   -0.2028   -0.1113    0.1329   -0.0312    0.1264
  Pz  C   21    0.0004   -0.0114    0.0046    0.0133    0.0051   -0.0079    0.0047   -0.0118
  S   C   22    0.0357   -0.0782   -0.0464    0.0649   -0.0526    0.0224   -0.0006   -0.0058
  Px  C   22   -0.1107    0.2054    0.1251   -0.1347    0.1177   -0.0481    0.0050    0.0026
  Py  C   22    0.0755    0.1268   -0.1854   -0.1745   -0.1972    0.2096   -0.0908    0.2396
  Pz  C   22    0.0134   -0.0260   -0.0151    0.0185   -0.0150    0.0060    0.0006   -0.0025
  S   C   23   -0.0414   -0.0640    0.0614    0.0766    0.0253   -0.0211   -0.0071    0.0013
  Px  C   23    0.0552    0.2332    0.0037   -0.1876    0.1579   -0.1420    0.0947   -0.1876
  Py  C   23    0.1788    0.0897   -0.2523   -0.1112   -0.1940    0.1564   -0.0456    0.1281
  Pz  C   23   -0.0039   -0.0138   -0.0012    0.0087   -0.0105    0.0097   -0.0063    0.0128
  S   C   24   -0.0060    0.1028    0.0509   -0.0250    0.0819   -0.0635   -0.0045   -0.0130
  Px  C   24    0.0741    0.2396   -0.0604   -0.2335    0.0863   -0.0773    0.1081   -0.1879
  Py  C   24    0.0428   -0.2673   -0.1615   -0.0404   -0.1659    0.1222    0.0916   -0.0877
  Pz  C   24   -0.0022   -0.0046    0.0030    0.0071   -0.0013    0.0015   -0.0035    0.0053
  S   H   25    0.0658    0.1486   -0.1132   -0.0638   -0.0979    0.0848    0.0193    0.0045
  S   H   26    0.0651   -0.1168   -0.0721    0.0755   -0.0672    0.0286   -0.0011   -0.0017
  S   H   27   -0.1181   -0.1154    0.1387    0.1152    0.0589   -0.0430   -0.0068   -0.0096
  S   H   28    0.0032    0.2097    0.0617   -0.0527    0.1141   -0.0915   -0.0166   -0.0094
  S   C   29   -0.0112    0.0482   -0.0118   -0.0619   -0.0281    0.0409    0.0087    0.0032
  Px  C   29   -0.1811   -0.0888    0.2608   -0.0745    0.2241   -0.1034   -0.1203    0.1886
  Py  C   29   -0.1232   -0.1096    0.1363    0.0102   -0.0934    0.2591    0.3029   -0.2603
  Pz  C   29   -0.0015   -0.0014    0.0006   -0.0002   -0.0059    0.0098    0.0103   -0.0091
  S   C   30    0.0133    0.0462   -0.0049   -0.0540    0.0406   -0.0310   -0.0001   -0.0069
  Px  C   30    0.1213   -0.2391   -0.2153   -0.0553   -0.0162   -0.1564   -0.1812    0.1558
  Py  C   30    0.0396   -0.0832   -0.1405   -0.1043   -0.2105    0.2454    0.2799   -0.2867
  Pz  C   30   -0.0014   -0.0017    0.0008    0.0027   -0.0040    0.0049    0.0049   -0.0041


   Root No.      81        82        83        84

                81 A      82 A      83 A      84 A   

                12.523    12.660    13.154    14.452
  
  S   C    1   -0.0576   -0.0185    0.0162    0.0411
  Px  C    1   -0.1374   -0.2268    0.1878    0.1114
  Py  C    1   -0.0522    0.1104   -0.0908    0.0229
  Pz  C    1    0.0050   -0.0115    0.0096   -0.0009
  S   C    2   -0.0143    0.0114   -0.0100    0.0282
  Px  C    2   -0.1893   -0.2389    0.1940    0.1603
  Py  C    2   -0.1430   -0.1032    0.0681    0.1366
  Pz  C    2   -0.0100   -0.0096    0.0076    0.0083
  S   C    3    0.0136    0.0041    0.0086    0.0274
  Px  C    3   -0.1765   -0.1315    0.2886    0.2464
  Py  C    3   -0.1473   -0.1572    0.0130    0.1213
  Pz  C    3   -0.0076   -0.0068    0.0105    0.0089
  S   C    4    0.0079    0.0014   -0.0135    0.0288
  Px  C    4   -0.2429    0.1387   -0.1130    0.2170
  Py  C    4   -0.1593   -0.0046   -0.2171    0.1439
  Pz  C    4   -0.0170    0.0071   -0.0133    0.0161
  S   C    5   -0.0053   -0.0128    0.0134    0.0264
  Px  C    5   -0.2524    0.1537   -0.1184    0.1875
  Py  C    5   -0.1341    0.1186   -0.1124    0.0611
  Pz  C    5   -0.0167    0.0131   -0.0111    0.0105
  S   C    6   -0.0634    0.0034   -0.0065    0.0415
  Px  C    6   -0.1403   -0.0029   -0.0063    0.0852
  Py  C    6   -0.1443    0.2191   -0.1865    0.0679
  Pz  C    6   -0.0238    0.0023   -0.0029    0.0134
  S   C    7    0.0595   -0.0002   -0.0143    0.0048
  Px  C    7   -0.1312   -0.1281    0.2833    0.2656
  Py  C    7    0.0427   -0.1051    0.1280    0.1579
  Pz  C    7   -0.0067   -0.0009    0.0058    0.0042
  S   C    8    0.0621    0.0156    0.0031    0.0062
  Px  C    8   -0.1198    0.1453   -0.2495    0.2761
  Py  C    8   -0.1875    0.0125   -0.1445    0.1362
  Pz  C    8   -0.0162   -0.0025   -0.0075    0.0054
  S   C    9    0.0621   -0.0051   -0.0010   -0.0043
  Px  C    9   -0.0500    0.1456   -0.2530    0.2806
  Py  C    9    0.0660   -0.2426   -0.1115    0.1559
  Pz  C    9    0.0056   -0.0069   -0.0000    0.0015
  S   C   10    0.0514    0.0272   -0.0113   -0.0119
  Px  C   10    0.0324    0.1588    0.2060    0.2595
  Py  C   10    0.0129   -0.2653    0.1480    0.1510
  Pz  C   10   -0.0006    0.0002   -0.0004    0.0007
  S   C   11    0.0562   -0.0007    0.0042   -0.0146
  Px  C   11    0.1009    0.1832    0.2127    0.2470
  Py  C   11    0.1846    0.0654    0.1348    0.1107
  Pz  C   11    0.0052    0.0013    0.0027    0.0027
  S   H   12    0.0577   -0.0197    0.0150   -0.0048
  S   C   13    0.0542    0.0134   -0.0028   -0.0197
  Px  C   13    0.1931   -0.0796   -0.2512    0.2433
  Py  C   13   -0.0070   -0.1008   -0.1098    0.1615
  Pz  C   13    0.0036   -0.0044   -0.0085    0.0093
  S   H   14    0.0454   -0.0226   -0.0132    0.0048
  S   H   15   -0.0646   -0.0129    0.0095    0.0394
  S   H   16   -0.0221    0.0082   -0.0177    0.0213
  S   H   17    0.0073   -0.0198    0.0280    0.0112
  S   H   18   -0.0774   -0.0068    0.0022    0.0442
  S   H   19    0.0431    0.0422   -0.0027    0.0151
  S   H   20    0.0395    0.0365   -0.0088   -0.0166
  S   C   21   -0.0174    0.0203    0.0150   -0.0243
  Px  C   21    0.2307    0.2480    0.1055    0.1620
  Py  C   21    0.0980    0.1961    0.1115    0.0506
  Pz  C   21   -0.0092   -0.0157   -0.0078   -0.0053
  S   C   22   -0.0733   -0.0153   -0.0025   -0.0369
  Px  C   22    0.1412    0.0176   -0.0020    0.0677
  Py  C   22    0.0770    0.3293    0.1846    0.0581
  Pz  C   22   -0.0185   -0.0046   -0.0008   -0.0086
  S   C   23   -0.0729    0.0008    0.0117   -0.0372
  Px  C   23    0.2419   -0.2433   -0.1745    0.0997
  Py  C   23    0.0280    0.1696    0.0923    0.0242
  Pz  C   23   -0.0118    0.0165    0.0110   -0.0044
  S   C   24   -0.0031   -0.0274   -0.0168   -0.0217
  Px  C   24    0.3015   -0.2335   -0.1746    0.1427
  Py  C   24    0.1582   -0.0545   -0.0350    0.1093
  Pz  C   24   -0.0092    0.0061    0.0047   -0.0044
  S   H   25   -0.0077    0.0310    0.0297   -0.0127
  S   H   26   -0.0752   -0.0071    0.0035   -0.0336
  S   H   27   -0.0827   -0.0174    0.0008   -0.0378
  S   H   28    0.0189   -0.0421   -0.0378   -0.0059
  S   C   29    0.0109    0.0045   -0.0020   -0.0242
  Px  C   29    0.2362    0.2323    0.1057    0.1943
  Py  C   29    0.1471    0.0425    0.2078    0.1175
  Pz  C   29    0.0025    0.0002    0.0059    0.0018
  S   C   30    0.0200   -0.0056    0.0035   -0.0207
  Px  C   30    0.2410   -0.0698   -0.2455    0.2160
  Py  C   30    0.1759   -0.1267    0.0220    0.0915
  Pz  C   30   -0.0017   -0.0003    0.0019    0.0003


              NET ATOMIC CHARGES AND DIPOLE CONTRIBUTIONS

  ATOM NO.   TYPE          CHARGE      No. of ELECS.   s-Pop       p-Pop       
    1          C          -0.030564        4.0306     1.11126     2.91930
    2          C          -0.029295        4.0293     1.10427     2.92503
    3          C           0.013628        3.9864     1.06467     2.92171
    4          C           0.008975        3.9910     1.07174     2.91929
    5          C          -0.033739        4.0337     1.11367     2.92007
    6          C          -0.031328        4.0313     1.09458     2.93675
    7          C          -0.029871        4.0299     1.09616     2.93371
    8          C          -0.033244        4.0332     1.08725     2.94600
    9          C           0.014958        3.9850     1.06396     2.92108
   10          C           0.012498        3.9875     1.06844     2.91906
   11          C          -0.041258        4.0413     1.10856     2.93269
   12          H           0.032004        0.9680     0.96800
   13          C          -0.038623        4.0386     1.10235     2.93628
   14          H           0.021288        0.9787     0.97871
   15          H           0.024111        0.9759     0.97589
   16          H           0.021094        0.9789     0.97891
   17          H           0.020219        0.9798     0.97978
   18          H           0.037027        0.9630     0.96297
   19          H           0.028445        0.9716     0.97155
   20          H           0.028503        0.9715     0.97150
   21          C          -0.030510        4.0305     1.10536     2.92515
   22          C          -0.020144        4.0201     1.10135     2.91880
   23          C          -0.025795        4.0258     1.08330     2.94250
   24          C          -0.029303        4.0293     1.09810     2.93121
   25          H           0.021789        0.9782     0.97821
   26          H           0.024101        0.9759     0.97590
   27          H           0.028722        0.9713     0.97128
   28          H           0.026414        0.9736     0.97359
   29          C           0.007743        3.9923     1.07772     2.91453
   30          C           0.002154        3.9978     1.07939     2.91845
 DIPOLE           X         Y         Z       TOTAL
 POINT-CHG.     0.034     0.151    -0.023     0.156
 HYBRID        -0.236    -0.031    -0.111     0.263
 SUM           -0.202     0.120    -0.134     0.270


          ATOMIC ORBITAL ELECTRON POPULATIONS

     Atom    s        px        py        pz   
    1  C   1.11126   0.97401   0.95013   0.99517
    2  C   1.10427   0.97413   0.94172   1.00918
    3  C   1.06467   0.97166   0.96378   0.98626
    4  C   1.07174   0.96644   0.97476   0.97808
    5  C   1.11367   0.97089   0.94511   1.00407
    6  C   1.09458   0.95429   0.98714   0.99531
    7  C   1.09616   0.96878   0.95120   1.01374
    8  C   1.08725   0.96013   0.96990   1.01597
    9  C   1.06396   0.96712   0.96756   0.98639
   10  C   1.06844   0.97027   0.96875   0.98005
   11  C   1.10856   0.96755   0.94634   1.01880
   12  H   0.96800
   13  C   1.10235   0.96753   0.95051   1.01824
   14  H   0.97871
   15  H   0.97589
   16  H   0.97891
   17  H   0.97978
   18  H   0.96297
   19  H   0.97155
   20  H   0.97150
   21  C   1.10536   0.96720   0.94877   1.00918
   22  C   1.10135   0.93655   0.98677   0.99548
   23  C   1.08330   0.98228   0.95386   1.00636
   24  C   1.09810   0.96650   0.96680   0.99790
   25  H   0.97821
   26  H   0.97590
   27  H   0.97128
   28  H   0.97359
   29  C   1.07772   0.96209   0.97115   0.98130
   30  C   1.07939   0.96515   0.97295   0.98035

 **********************
 *                    *
 * JOB ENDED NORMALLY *
 *                    *
 **********************



 TOTAL JOB TIME:             0.70 SECONDS

 == MOPAC DONE ==


          MOPAC Job: "./tetraceneTraj/tetracene_1920.mop" ended normally on Feb 15, 2023, at 11:37.

rm: cannot remove ./tetraceneTraj/tetracene_1920.cim: No such file or directory
rm: cannot remove ./tetraceneTraj/tetracene_1920.end: No such file or directory
rm: cannot remove ./tetraceneTraj/tetracene_1920.log: No such file or directory
rm: cannot remove ./tetraceneTraj/tetracene_1920.temp: No such file or directory
rm: cannot remove ./tetraceneTraj/tetracene_1920.ple: No such file or directory
rm: cannot remove ./tetraceneTraj/tetracene_1920.sts: No such file or directory
