 *******************************************************************************
 ** Site#:    0         For non-commercial use only    Version 20.173L 64BITS **
 *******************************************************************************
 ** Cite this program as: MOPAC2016, Version: 20.173L, James J. P. Stewart,   **
 ** Stewart Computational Chemistry, web-site: HTTP://OpenMOPAC.net.          **
 *******************************************************************************
 **                                                                           **
 **                                MOPAC2016                                  **
 **                                                                           **
 *******************************************************************************

                              INDO CALCULATION RESULTS

 *******************************************************************************
 *  CALCULATION DONE:                                Wed Feb 15 11:23:35 2023  *
 *  INDO       - The INDO Hamiltonian to be used
 *
 *
 *
 *                 CHARGE ON SYSTEM = 0
 *
 *
 *
 *  C.I.=(N,M) - 3 DOUBLY FILLED LEVELS USED IN A C.I. INVOLVING 6 M.O.'S
 *  T=         - A TIME OF 172800.0 SECONDS REQUESTED
 *  DUMP=N     - RESTART FILE WRITTEN EVERY 7200.0 SECONDS REQUESTED
 *  RELSCF     - DEFAULT SCF CRITERION MULTIPLIED BY 0.0000
 *              (DEFAULT SCF CRITERION = 0.00010)
 *  ALLVEC     - PRINT ALL EIGENVECTORS
 **********
 *  WARNING: Specified print options may not behave as expected with INDO
 **********
 *******************************************************************************
INDO C.I.=(6,3) AllVEC CHARGE=0 RELSCF=0.000001


   ATOM   CHEMICAL          X               Y               Z
  NUMBER   SYMBOL      (ANGSTROMS)     (ANGSTROMS)     (ANGSTROMS)
 
     1       C         18.54502116  *  19.47066660  *  22.41853611  *
     2       C         19.93078874  *  19.42877974  *  22.44567148  *
     3       C         20.73425589  *  20.68093271  *  22.44592218  *
     4       C         19.94068029  *  21.97641577  *  22.44425093  *
     5       C         18.49951759  *  21.91829570  *  22.45017634  *
     6       C         17.82041422  *  20.71642404  *  22.40079286  *
     7       C         22.14395241  *  20.63263791  *  22.41498756  *
     8       C         20.71156060  *  23.18571941  *  22.50297338  *
     9       C         22.13986449  *  23.14255041  *  22.51463268  *
    10       C         22.82458309  *  21.86486192  *  22.42181594  *
    11       C         24.26722931  *  21.90661394  *  22.50340647  *
    12       H         24.76036920  *  20.90940329  *  22.56555525  *
    13       C         22.91296928  *  24.34563596  *  22.52094682  *
    14       H         22.68434055  *  19.71356683  *  22.31494743  *
    15       H         18.04376971  *  18.49463906  *  22.35173368  *
    16       H         20.45360828  *  18.48458494  *  22.46944115  *
    17       H         17.97863601  *  22.89629795  *  22.47363071  *
    18       H         16.73486276  *  20.67577010  *  22.36947308  *
    19       H         20.25606068  *  24.18441667  *  22.53412189  *
    20       H         22.29779230  *  25.26103290  *  22.54605776  *
    21       C         26.44791448  *  23.01726706  *  22.56410688  *
    22       C         27.19573762  *  24.20516451  *  22.58415324  *
    23       C         26.48324861  *  25.47609272  *  22.60137506  *
    24       C         25.08119156  *  25.58446304  *  22.67493714  *
    25       H         26.86728112  *  21.98932194  *  22.55112400  *
    26       H         28.28559195  *  24.16462660  *  22.57675021  *
    27       H         27.04190753  *  26.38712678  *  22.57059044  *
    28       H         24.62980184  *  26.57685144  *  22.69649639  *
    29       C         25.01115988  *  23.09981342  *  22.52777494  *
    30       C         24.30705324  *  24.36970169  *  22.56186335  *
 


          CARTESIAN COORDINATES 

    NO.       ATOM           X           Y           Z

     1         C         18.5450     19.4707     22.4185
     2         C         19.9308     19.4288     22.4457
     3         C         20.7343     20.6809     22.4459
     4         C         19.9407     21.9764     22.4443
     5         C         18.4995     21.9183     22.4502
     6         C         17.8204     20.7164     22.4008
     7         C         22.1440     20.6326     22.4150
     8         C         20.7116     23.1857     22.5030
     9         C         22.1399     23.1426     22.5146
    10         C         22.8246     21.8649     22.4218
    11         C         24.2672     21.9066     22.5034
    12         H         24.7604     20.9094     22.5656
    13         C         22.9130     24.3456     22.5209
    14         H         22.6843     19.7136     22.3149
    15         H         18.0438     18.4946     22.3517
    16         H         20.4536     18.4846     22.4694
    17         H         17.9786     22.8963     22.4736
    18         H         16.7349     20.6758     22.3695
    19         H         20.2561     24.1844     22.5341
    20         H         22.2978     25.2610     22.5461
    21         C         26.4479     23.0173     22.5641
    22         C         27.1957     24.2052     22.5842
    23         C         26.4832     25.4761     22.6014
    24         C         25.0812     25.5845     22.6749
    25         H         26.8673     21.9893     22.5511
    26         H         28.2856     24.1646     22.5768
    27         H         27.0419     26.3871     22.5706
    28         H         24.6298     26.5769     22.6965
    29         C         25.0112     23.0998     22.5278
    30         C         24.3071     24.3697     22.5619

           Empirical Formula: C18 H12  =    30 atoms



      MOLECULAR POINT GROUP   :   C2  


      RHF CALCULATION, NO. OF DOUBLY OCCUPIED LEVELS = 42

 WARNING: INDO only performs single-point calculations
  SCF CRITERION =    0.1000E-09

 Summary of symmetry occupancy in each shell:

 SHELL     
    1   42
    v   42
 TOTAL  84




    ROOT NO.    1           2           3           4           5           6

           -44.71194   -42.81545   -40.42440   -36.90293   -35.85195   -34.13745
  
  
  S  C   1   0.08685     0.23225    -0.28115    -0.22941     0.08878    -0.13861
 PX  C   1   0.02246     0.05077    -0.04311    -0.00039     0.04066    -0.08397
 PY  C   1   0.03078     0.07831    -0.08669    -0.05991    -0.01348     0.04599
 PZ  C   1   0.00016     0.00022     0.00015     0.00092    -0.00018     0.00006
  
  S  C   2   0.11117     0.24906    -0.22575    -0.07832     0.16820    -0.28499
 PX  C   2  -0.00140    -0.03133     0.07831     0.11089     0.02136    -0.02567
 PY  C   2   0.04309     0.08668    -0.06036     0.00488     0.01084    -0.00747
 PZ  C   2  -0.00053    -0.00145     0.00173     0.00133    -0.00100     0.00135
  
  S  C   3   0.21568     0.32034    -0.07137     0.20582     0.13312    -0.19173
 PX  C   3   0.01665    -0.04491     0.13944     0.13893     0.06582    -0.05720
 PY  C   3   0.04699     0.03196     0.05931     0.08234    -0.09620     0.13368
 PZ  C   3  -0.00068    -0.00138     0.00047    -0.00146    -0.00294     0.00335
  
  S  C   4   0.20806     0.31932    -0.09314     0.14157    -0.19092     0.22486
 PX  C   4   0.04743     0.00344     0.12386     0.15363     0.00656    -0.07079
 PY  C   4  -0.01521    -0.05995     0.08378     0.04376    -0.10600     0.10817
 PZ  C   4   0.00199     0.00205     0.00135     0.00328    -0.00461     0.00438
  
  S  C   5   0.11059     0.25274    -0.23960    -0.12943    -0.14092     0.27283
 PX  C   5   0.03656     0.06097    -0.01760     0.04794    -0.04149     0.03718
 PY  C   5  -0.02426    -0.07268     0.09802     0.08647    -0.03515     0.02754
 PZ  C   5  -0.00058    -0.00201     0.00306     0.00306    -0.00049    -0.00064
  
  S  C   6   0.08633     0.23235    -0.28441    -0.24662    -0.01998     0.10134
 PX  C   6   0.03813     0.09427    -0.09850    -0.05472     0.00075     0.00456
 PY  C   6   0.00356     0.00465     0.00376     0.01624    -0.04783     0.09684
 PZ  C   6   0.00129     0.00329    -0.00365    -0.00247    -0.00083     0.00211
  
  S  C   7   0.21721     0.18167     0.14327     0.27248     0.27849    -0.19727
 PX  C   7  -0.01774    -0.06969     0.03834    -0.07729     0.03682     0.06179
 PY  C   7   0.07823     0.03605     0.08406     0.06300     0.00370     0.03899
 PZ  C   7   0.00220     0.00075     0.00181     0.00025    -0.00145     0.00179
  
  S  C   8   0.21028     0.17433     0.13351     0.18076    -0.33349     0.20902
 PX  C   8   0.05687    -0.00690     0.09289     0.00652    -0.02819    -0.06265
 PY  C   8  -0.05410    -0.07773    -0.00753    -0.10003    -0.00605    -0.04074
 PZ  C   8  -0.00215    -0.00283    -0.00069    -0.00372     0.00065    -0.00221
  
  S  C   9   0.33472     0.06763     0.28655    -0.02657    -0.23245     0.02581
 PX  C   9   0.04504    -0.08099     0.02477    -0.17978     0.09878    -0.07127
 PY  C   9  -0.04079    -0.05750    -0.03837    -0.11960    -0.12397    -0.02278
 PZ  C   9  -0.00528    -0.00305    -0.00533    -0.00398    -0.00039    -0.00116
  
  S  C  10   0.33654     0.07576     0.28858     0.04412     0.21720    -0.02205
 PX  C  10  -0.01247    -0.09170    -0.02081    -0.17950     0.09738     0.04295
 PY  C  10   0.05657    -0.04185     0.03879    -0.13005    -0.12673     0.04678
 PZ  C  10   0.01083    -0.00037     0.00889    -0.00518     0.00329     0.00209
  
  S  C  11   0.26879    -0.09578     0.13623    -0.18751     0.33452     0.16489
 PX  C  11  -0.04806    -0.04007    -0.09674     0.00500    -0.00514     0.09201
 PY  C  11   0.08118    -0.06369     0.00565    -0.10803    -0.01000     0.04014
 PZ  C  11  -0.00017    -0.00178    -0.00287    -0.00047    -0.00152     0.00293
  
  S  H  12   0.08189    -0.02563     0.04023    -0.03609     0.16851     0.08173
  
  S  C  13   0.26692    -0.09492     0.14243    -0.26075    -0.28269    -0.16773
 PX  C  13   0.04299    -0.07207    -0.04320    -0.07736     0.03881    -0.08524
 PY  C  13  -0.08512     0.00276    -0.08243     0.06501    -0.00599    -0.04609
 PZ  C  13   0.00141    -0.00230    -0.00141    -0.00270    -0.00357    -0.00492
  
  S  H  14   0.06884     0.05564     0.04301     0.08515     0.14964    -0.09921
  
  S  H  15   0.02261     0.06435    -0.08564    -0.08285     0.03904    -0.06798
  
  S  H  16   0.03535     0.07567    -0.06329    -0.01156     0.08539    -0.14494
  
  S  H  17   0.03380     0.07387    -0.06549    -0.03372    -0.07630     0.13640
  
  S  H  18   0.02237     0.06443    -0.08735    -0.09147    -0.00905     0.04503
  
  S  H  19   0.06565     0.04948     0.04129     0.03683    -0.16248     0.09457
  
  S  H  20   0.08131    -0.02344     0.04578    -0.07377    -0.15556    -0.07439
  
  S  C  21   0.17914    -0.21741    -0.21024     0.13353     0.17309     0.29929
 PX  C  21  -0.05970     0.05284     0.01511     0.05390    -0.05252    -0.03931
 PY  C  21   0.04287    -0.06722    -0.09084     0.09451    -0.03981    -0.02109
 PZ  C  21  -0.00062     0.00029    -0.00060     0.00181    -0.00258    -0.00303
  
  S  C  22   0.13686    -0.19686    -0.24831     0.26365     0.02764     0.12823
 PX  C  22  -0.06345     0.08411     0.09114    -0.06355    -0.00213    -0.01309
 PY  C  22  -0.00394     0.00137    -0.00667     0.02214    -0.05530    -0.09606
 PZ  C  22  -0.00030     0.00030     0.00012     0.00029    -0.00144    -0.00257
  
  S  C  23   0.14092    -0.20255    -0.25500     0.26211    -0.10146    -0.12364
 PX  C  23  -0.03875     0.04786     0.04428    -0.00879     0.04767     0.08889
 PY  C  23  -0.04905     0.06642     0.07508    -0.06146    -0.01770    -0.05435
 PZ  C  23   0.00027    -0.00052    -0.00089     0.00118    -0.00163    -0.00312
  
  S  C  24   0.17439    -0.21376    -0.20945     0.11324    -0.19444    -0.29300
 PX  C  24   0.00483    -0.02793    -0.06657     0.11244     0.02173     0.03125
 PY  C  24  -0.07256     0.08010     0.06148    -0.00242     0.01956     0.02037
 PZ  C  24  -0.00773     0.00931     0.00863    -0.00349     0.00680     0.00983
  
  S  H  25   0.05537    -0.06259    -0.05406     0.02887     0.09635     0.14871
  
  S  H  26   0.03440    -0.05286    -0.07374     0.09449     0.01310     0.05717
  
  S  H  27   0.03761    -0.05778    -0.08040     0.09912    -0.04451    -0.06076
  
  S  H  28   0.05047    -0.06076    -0.05852     0.02916    -0.09152    -0.14053
  
  S  C  29   0.31808    -0.26335    -0.08392    -0.14658     0.19628     0.19968
 PX  C  29  -0.05204    -0.01983    -0.12290     0.16762     0.02514     0.09839
 PY  C  29   0.03114    -0.05834    -0.07857     0.04876    -0.13061    -0.12700
 PZ  C  29   0.00237    -0.00393    -0.00494     0.00303    -0.00154    -0.00047
  
  S  C  30   0.31296    -0.25752    -0.07711    -0.17986    -0.15719    -0.21926
 PX  C  30   0.00033    -0.06143    -0.13410     0.14749     0.05894     0.04629
 PY  C  30  -0.06611     0.02034    -0.05695     0.10047    -0.10206    -0.12710
 PZ  C  30  -0.00093    -0.00176    -0.00527     0.00586    -0.00357    -0.00533




    ROOT NO.    7           8           9          10          11          12

           -31.98136   -31.33318   -28.77189   -28.24983   -27.08380   -26.10901
  
  
  S  C   1   0.19121     0.24580    -0.20342     0.21343    -0.05538    -0.19723
 PX  C   1   0.11706    -0.09191    -0.09010    -0.17600     0.03116    -0.06824
 PY  C   1  -0.08181     0.02656     0.09995     0.00566    -0.04627     0.14487
 PZ  C   1   0.00005    -0.00395     0.00062    -0.00684     0.00093     0.00186
  
  S  C   2   0.31088    -0.06875    -0.14275    -0.15986     0.10048    -0.05100
 PX  C   2  -0.03483    -0.13674     0.14590    -0.08758     0.08205     0.18184
 PY  C   2  -0.02284    -0.07712     0.07680    -0.08009    -0.06014     0.14125
 PZ  C   2  -0.00119    -0.00204     0.00105    -0.00256     0.00045     0.00211
  
  S  C   3   0.08489    -0.26060     0.12790    -0.10611    -0.07200     0.22211
 PX  C   3  -0.05478     0.03760     0.12544     0.17043     0.06521     0.03755
 PY  C   3  -0.09578     0.00186    -0.04439     0.09264    -0.18442    -0.07144
 PZ  C   3   0.00042     0.00074    -0.00491    -0.00166    -0.00263    -0.00250
  
  S  C   4  -0.09592    -0.25561    -0.11798    -0.13884    -0.09677    -0.15994
 PX  C   4   0.11989     0.00026    -0.06524     0.16044    -0.12841     0.06401
 PY  C   4  -0.00433     0.02667    -0.11244     0.08071     0.12309    -0.16507
 PZ  C   4   0.00087    -0.00287    -0.00640     0.00040     0.00077    -0.00582
  
  S  C   5  -0.30783    -0.03621     0.16021    -0.13416     0.12426    -0.00356
 PX  C   5   0.02356    -0.14230    -0.11869    -0.14629    -0.04241    -0.15806
 PY  C   5   0.01455    -0.08396    -0.07386    -0.05440     0.07969    -0.14636
 PZ  C   5   0.00290    -0.00306    -0.00468    -0.00183     0.00070    -0.00544
  
  S  C   6  -0.17587     0.27114     0.17938     0.26172    -0.01259     0.18919
 PX  C   6   0.00358    -0.02556    -0.02789    -0.09723    -0.03185    -0.03773
 PY  C   6  -0.13816    -0.07723     0.13271    -0.12917     0.07857     0.09281
 PZ  C   6  -0.00288     0.00004     0.00227    -0.00275     0.00051     0.00168
  
  S  C   7  -0.14680    -0.00343     0.23038     0.13166     0.17239    -0.01786
 PX  C   7  -0.11619     0.14828    -0.06688     0.00492     0.10244    -0.21637
 PY  C   7  -0.06974     0.08653    -0.04212     0.08215    -0.16139    -0.08106
 PZ  C   7   0.00103     0.00065    -0.00428    -0.00110    -0.00935     0.00197
  
  S  C   8   0.15689    -0.01123    -0.22709     0.12863     0.15417    -0.06927
 PX  C   8   0.12289     0.14424     0.04647     0.09204    -0.03901     0.20366
 PY  C   8   0.06694     0.08030     0.04582    -0.02059     0.19997     0.07331
 PZ  C   8   0.00251     0.00269     0.00167    -0.00060     0.00682     0.00365
  
  S  C   9   0.20533     0.23465    -0.00324     0.00848    -0.06351     0.17741
 PX  C   9  -0.07693     0.02755     0.10552    -0.18815    -0.11112    -0.02579
 PY  C   9   0.12697    -0.02098     0.07980    -0.07374     0.24905     0.07622
 PZ  C   9   0.00036    -0.00527     0.00182    -0.00222     0.01138    -0.00180
  
  S  C  10  -0.20059     0.24769    -0.02215    -0.01010    -0.10587    -0.15651
 PX  C  10  -0.07064     0.00814    -0.09581    -0.18073     0.12808    -0.08173
 PY  C  10   0.12193     0.03003    -0.06094    -0.11029    -0.20469     0.13706
 PZ  C  10  -0.00277     0.00729    -0.00589    -0.00664    -0.00945    -0.00054
  
  S  C  11  -0.14054     0.02134    -0.24440    -0.12849     0.17902     0.00260
 PX  C  11   0.11539    -0.15862    -0.04891     0.09874     0.09324     0.18678
 PY  C  11   0.06411    -0.08307    -0.02207    -0.04213    -0.17189     0.13420
 PZ  C  11   0.00496    -0.00662    -0.00186     0.00425     0.00055     0.00861
  
  S  H  12  -0.07037     0.01145    -0.11407    -0.01315     0.21778    -0.02310
  
  S  C  13   0.14281     0.00648     0.25639    -0.09747     0.18720    -0.01748
 PX  C  13  -0.12821    -0.14897     0.04884     0.00023    -0.15197    -0.17523
 PY  C  13  -0.05668    -0.08589     0.02798     0.09784     0.14059    -0.11515
 PZ  C  13  -0.00165    -0.00520     0.00442     0.00275     0.00583    -0.00636
  
  S  H  14  -0.07109    -0.00196     0.11307     0.02627     0.21216    -0.03562
  
  S  H  15   0.10350     0.13059    -0.12860     0.15021    -0.01181    -0.15963
  
  S  H  16   0.15380    -0.03360    -0.06647    -0.06449     0.11242    -0.04862
  
  S  H  17  -0.14578    -0.02142     0.07013    -0.05353     0.12171    -0.03743
  
  S  H  18  -0.08582     0.14933     0.10333     0.19069     0.01046     0.11777
  
  S  H  19   0.08236     0.00134    -0.09311     0.03068     0.20719    -0.04664
  
  S  H  20   0.08400     0.00895     0.11753     0.00116     0.22622    -0.00857
  
  S  C  21   0.25821    -0.03882     0.15948     0.14637     0.10883    -0.02883
 PX  C  21   0.02144     0.14083     0.14248    -0.12277     0.00455    -0.17558
 PY  C  21   0.01890     0.07377     0.09445    -0.03878    -0.12540    -0.11222
 PZ  C  21  -0.00136     0.00302     0.00214    -0.00224    -0.00240    -0.00412
  
  S  C  22   0.16696     0.26931     0.23581    -0.23354    -0.04897    -0.19111
 PX  C  22  -0.00477     0.02316     0.02549    -0.08831     0.03540    -0.04240
 PY  C  22  -0.10508     0.08024    -0.12732    -0.13686    -0.03896     0.11104
 PZ  C  22  -0.00280     0.00129    -0.00324    -0.00166    -0.00031     0.00222
  
  S  C  23  -0.13462     0.26767    -0.19554    -0.24050     0.01593     0.19868
 PX  C  23   0.09948     0.08817     0.11524    -0.16594    -0.03432    -0.05183
 PY  C  23  -0.07400    -0.01812    -0.12548    -0.00990     0.09122     0.13118
 PZ  C  23  -0.00413     0.00065    -0.00667     0.00155     0.00273     0.00539
  
  S  C  24  -0.25995    -0.04022    -0.19497     0.13568     0.12904     0.03154
 PX  C  24  -0.01902     0.13552    -0.13849    -0.10253    -0.03445     0.18862
 PY  C  24  -0.00608     0.07961    -0.07879    -0.08615     0.10627     0.11506
 PZ  C  24   0.00751     0.00422     0.00201    -0.00647     0.00135     0.00373
  
  S  H  25   0.11733    -0.02639     0.05389     0.06578     0.13385     0.00812
  
  S  H  26   0.08151     0.14360     0.13560    -0.16517    -0.00351    -0.12610
  
  S  H  27  -0.07311     0.15051    -0.12644    -0.17758     0.04363     0.15469
  
  S  H  28  -0.12498    -0.01101    -0.10361     0.04811     0.13586     0.03230
  
  S  C  29   0.06846    -0.24134    -0.10862     0.10679    -0.08014     0.16420
 PX  C  29   0.10483    -0.00629     0.04485     0.17028     0.11805     0.03175
 PY  C  29  -0.01888    -0.03253     0.12711     0.06970    -0.18691    -0.12822
 PZ  C  29   0.00120    -0.00422     0.00194     0.00769    -0.00172    -0.00070
  
  S  C  30  -0.09493    -0.24719     0.12006     0.11062    -0.11519    -0.18315
 PX  C  30  -0.04899    -0.03071    -0.13943     0.14518    -0.07997     0.05478
 PY  C  30  -0.08239     0.01092     0.00521     0.10416     0.17536    -0.10456
 PZ  C  30  -0.00513    -0.00277    -0.00276     0.01057     0.00638    -0.00475




    ROOT NO.   13          14          15          16          17          18

           -25.11627   -23.91977   -22.93906   -21.58143   -20.49343   -19.30078
  
  
  S  C   1  -0.02435     0.11989     0.00207    -0.17599    -0.06606     0.02952
 PX  C   1   0.01245    -0.22384     0.00442     0.00312     0.20505     0.18257
 PY  C   1  -0.13267     0.00837     0.20682     0.12618    -0.11137     0.15143
 PZ  C   1  -0.00071    -0.00923     0.00239     0.00570     0.00844     0.00980
  
  S  C   2   0.14234    -0.17840    -0.10509     0.13667     0.11759     0.00222
 PX  C   2   0.10189     0.02683    -0.06619     0.19719    -0.10264    -0.18654
 PY  C   2  -0.16785     0.01686     0.21525     0.07506    -0.13809     0.05661
 PZ  C   2   0.00102    -0.00270    -0.00207     0.00714     0.00365    -0.00400
  
  S  C   3  -0.10239     0.10348     0.01899     0.09446    -0.03667    -0.15354
 PX  C   3   0.16683     0.12386    -0.17065    -0.11523    -0.01968     0.02870
 PY  C   3  -0.19016     0.08710     0.01038    -0.14364     0.13600    -0.05016
 PZ  C   3  -0.00222    -0.00317    -0.00159     0.00828     0.00591    -0.00702
  
  S  C   4  -0.12666     0.11209     0.01789    -0.08984    -0.07053    -0.16638
 PX  C   4  -0.07921     0.15923    -0.05222     0.16638     0.12042    -0.08252
 PY  C   4   0.22177     0.08545    -0.14883     0.03556    -0.09245     0.00598
 PZ  C   4   0.00220     0.00430    -0.00205     0.00615    -0.00138    -0.00327
  
  S  C   5   0.15648    -0.19091    -0.12702    -0.12285     0.10631     0.05460
 PX  C   5  -0.12336     0.02949     0.14134    -0.15709    -0.20491    -0.03393
 PY  C   5   0.15182     0.01895    -0.17266    -0.10376    -0.04606    -0.16693
 PZ  C   5   0.00145     0.00168    -0.00181    -0.00177    -0.00280    -0.00331
  
  S  C   6   0.01810     0.12123    -0.00248     0.17191    -0.02493    -0.02847
 PX  C   6  -0.11749    -0.11708     0.17430    -0.12756    -0.00702     0.28532
 PY  C   6   0.10197    -0.20709    -0.10372     0.05023     0.25531     0.08533
 PZ  C   6  -0.00100    -0.00648     0.00290    -0.00042     0.00548     0.01194
  
  S  C   7   0.13143     0.09908     0.04925    -0.20012    -0.09433     0.15611
 PX  C   7  -0.00900    -0.11548     0.17488    -0.06107     0.00474     0.12536
 PY  C   7  -0.13172    -0.08241    -0.03732    -0.05055     0.22610    -0.01009
 PZ  C   7  -0.00619    -0.00334    -0.00805     0.01151     0.01291    -0.01589
  
  S  C   8   0.14588     0.11803     0.06823     0.21774    -0.06240     0.14216
 PX  C   8  -0.06411    -0.15564     0.06051     0.03313     0.19299     0.11422
 PY  C   8   0.09367    -0.06929     0.16616     0.04892    -0.09375     0.14948
 PZ  C   8   0.00156    -0.00272     0.00827     0.00546    -0.00022     0.00652
  
  S  C   9   0.01167    -0.23225    -0.02439    -0.00655    -0.00563     0.02245
 PX  C   9  -0.01710    -0.05711    -0.10768    -0.15158    -0.18196    -0.17245
 PY  C   9   0.03032     0.07708     0.19571    -0.08875    -0.08909    -0.07086
 PZ  C   9   0.00026     0.00851     0.00963     0.00332     0.00029    -0.00199
  
  S  C  10  -0.03831    -0.21934    -0.01716    -0.00025     0.01112    -0.01563
 PX  C  10   0.00854     0.03464     0.13324     0.18533    -0.14641    -0.15722
 PY  C  10   0.00408    -0.09962    -0.18681     0.10525    -0.09806    -0.08119
 PZ  C  10  -0.00324    -0.00796    -0.00661     0.01392     0.00161    -0.01361
  
  S  C  11  -0.09648     0.10931     0.07170     0.21356     0.08962    -0.13256
 PX  C  11  -0.04730     0.15795    -0.06741    -0.07683     0.18001     0.09747
 PY  C  11   0.09052     0.07006    -0.15906    -0.05149    -0.11602     0.14794
 PZ  C  11  -0.00230     0.00654    -0.00442    -0.00064     0.01320     0.00038
  
  S  H  12  -0.11401     0.06248     0.10857     0.10815     0.16573    -0.12583
  
  S  C  13  -0.12915     0.10126     0.03551    -0.21163     0.06437    -0.16610
 PX  C  13  -0.01347     0.15258    -0.17036     0.07783     0.01640     0.13911
 PY  C  13  -0.11985     0.10027     0.03056     0.01246     0.22572    -0.02758
 PZ  C  13  -0.00537     0.00556     0.00038     0.00369     0.00798     0.00184
  
  S  H  14   0.13847     0.06083     0.10447    -0.08979    -0.17843     0.13210
  
  S  H  15   0.05770     0.12321    -0.12241    -0.17112    -0.03190    -0.14940
  
  S  H  16   0.20071    -0.09318    -0.19823     0.08795     0.10759    -0.09623
  
  S  H  17   0.20397    -0.09377    -0.20662    -0.06945     0.09054    -0.06195
  
  S  H  18   0.07954     0.14386    -0.11389     0.17729    -0.01576    -0.23312
  
  S  H  19   0.14327     0.06376     0.11853     0.12429    -0.14106     0.13176
  
  S  H  20  -0.12003     0.05452     0.10059    -0.11993     0.15134    -0.14992
  
  S  C  21  -0.17962    -0.17498    -0.12695    -0.10602    -0.13032    -0.03537
 PX  C  21  -0.11742    -0.01886    -0.11980     0.16868    -0.18746     0.00396
 PY  C  21   0.14724    -0.05340     0.16687     0.08500    -0.02511    -0.14245
 PZ  C  21   0.00168    -0.00164     0.00255     0.00548    -0.00232    -0.00487
  
  S  C  22  -0.01972     0.11894    -0.01081     0.16387     0.03862     0.02564
 PX  C  22  -0.10188     0.14460    -0.16135     0.12248     0.00323     0.26491
 PY  C  22   0.12678     0.19664     0.10346    -0.07285     0.25737     0.01805
 PZ  C  22   0.00175     0.00067     0.00205     0.00039     0.00102    -0.00391
  
  S  C  23   0.05664     0.13509     0.01342    -0.16290     0.05456    -0.04084
 PX  C  23   0.02413     0.24183    -0.01402    -0.03047     0.20723     0.13209
 PY  C  23  -0.11704     0.02753    -0.18756    -0.10382    -0.13485     0.15984
 PZ  C  23  -0.00259    -0.00754    -0.00245     0.00080    -0.01181    -0.00639
  
  S  C  24  -0.16708    -0.17094    -0.10984     0.13340    -0.11148     0.01012
 PX  C  24   0.11328    -0.03904     0.06651    -0.16036    -0.13148    -0.13667
 PY  C  24  -0.15040     0.01857    -0.20000    -0.05540    -0.16389     0.08083
 PZ  C  24  -0.00311     0.00262    -0.00677    -0.00092    -0.00706     0.00365
  
  S  H  25  -0.20902    -0.05993    -0.19205    -0.05815    -0.09372     0.07039
  
  S  H  26  -0.07555     0.15024    -0.11396     0.17304     0.01723     0.21208
  
  S  H  27  -0.02459     0.16789    -0.10391    -0.15911     0.02484     0.13353
  
  S  H  28  -0.20305    -0.06710    -0.19381     0.07692    -0.12376     0.09809
  
  S  C  29   0.14855     0.09478     0.02234    -0.09025     0.03807     0.14227
 PX  C  29  -0.08024    -0.16267     0.05673    -0.16203     0.09833    -0.11189
 PY  C  29   0.19580    -0.09531     0.14038    -0.01331    -0.08670     0.02357
 PZ  C  29   0.00331    -0.00462     0.00555    -0.00114     0.00563    -0.00207
  
  S  C  30   0.06964     0.09725     0.01169     0.08403     0.06723     0.13458
 PX  C  30   0.16023    -0.17044     0.16381     0.09904    -0.01541     0.01324
 PY  C  30  -0.20971    -0.08690    -0.02355     0.11779     0.15214    -0.08474
 PZ  C  30  -0.00620    -0.00959     0.00363     0.01413     0.00907    -0.00150




    ROOT NO.   19          20          21          22          23          24

           -18.38250   -17.30076   -17.02458   -16.73678   -15.86667   -15.44624
  
  
  S  C   1  -0.14695     0.02911    -0.04919    -0.10071    -0.06497     0.05277
 PX  C   1   0.11097    -0.16213    -0.03254     0.02136    -0.15549     0.11099
 PY  C   1   0.15425     0.19450    -0.01598     0.09471    -0.11815    -0.06094
 PZ  C   1   0.01281    -0.00246    -0.00199     0.00556    -0.01223    -0.00493
  
  S  C   2   0.16470     0.01103    -0.00352     0.07727     0.02427     0.00623
 PX  C   2   0.06070     0.16346     0.05363     0.06360     0.18904    -0.12069
 PY  C   2  -0.03508     0.11615    -0.16190    -0.18214     0.01064     0.30695
 PZ  C   2   0.00953     0.00226    -0.00050     0.00457     0.00343    -0.01348
  
  S  C   3  -0.09055    -0.05059    -0.15721    -0.16292     0.05291     0.06954
 PX  C   3  -0.15850     0.05020    -0.07535    -0.05125    -0.20833    -0.22871
 PY  C   3  -0.04609    -0.27617     0.07905     0.03981     0.01076    -0.06513
 PZ  C   3   0.00852     0.00229    -0.00609    -0.00560     0.00498    -0.00855
  
  S  C   4   0.03239    -0.05776     0.16779     0.13713     0.07790    -0.03514
 PX  C   4   0.12311    -0.22219    -0.00069    -0.02697    -0.14205     0.16479
 PY  C   4   0.10655     0.16749     0.03290     0.08233    -0.19569    -0.02304
 PZ  C   4   0.00762     0.00290    -0.00304    -0.00486    -0.00453     0.00109
  
  S  C   5  -0.14074     0.00867    -0.00582    -0.07115    -0.00916    -0.01627
 PX  C   5  -0.03737     0.18526     0.09981     0.13677     0.18128    -0.18182
 PY  C   5  -0.12968     0.10058    -0.11706    -0.14317     0.13843     0.25588
 PZ  C   5  -0.00161     0.00585    -0.00752    -0.00838    -0.00016     0.00894
  
  S  C   6   0.13984     0.00481     0.03962     0.09836    -0.02965    -0.07888
 PX  C   6  -0.10146     0.09072    -0.01085    -0.04943    -0.24037    -0.15974
 PY  C   6   0.03040    -0.25045     0.03444    -0.00568    -0.09745    -0.03125
 PZ  C   6   0.00037    -0.00040    -0.00312    -0.00403    -0.01673    -0.00546
  
  S  C   7  -0.05921    -0.02971     0.04059     0.04234    -0.05828    -0.02269
 PX  C   7   0.18470    -0.06202     0.17613     0.15595     0.15957     0.17271
 PY  C   7   0.09015    -0.07082    -0.32330    -0.03904     0.13018    -0.17142
 PZ  C   7   0.00002     0.00501    -0.02817    -0.02250     0.00136    -0.02660
  
  S  C   8   0.11852    -0.00989    -0.04525    -0.03522    -0.09522     0.02116
 PX  C   8  -0.15937    -0.05716     0.19184    -0.05977     0.10832     0.08710
 PY  C   8  -0.04592     0.01535    -0.28961    -0.13818     0.13073    -0.09660
 PZ  C   8  -0.00319    -0.00220    -0.01108    -0.01536     0.00768    -0.00468
  
  S  C   9  -0.12566     0.12236     0.20527    -0.02522     0.04707     0.07005
 PX  C   9   0.02332     0.10248    -0.06878     0.05337    -0.03531    -0.06479
 PY  C   9  -0.07899    -0.23264     0.07512    -0.02509     0.09021     0.00639
 PZ  C   9  -0.00347    -0.01304     0.00025    -0.01560     0.00448    -0.00679
  
  S  C  10   0.13021     0.11140    -0.19285     0.04887     0.10705    -0.03194
 PX  C  10   0.02629    -0.10845    -0.02198    -0.04612     0.01355     0.07250
 PY  C  10  -0.08326     0.23650     0.09453    -0.01683    -0.13383     0.04094
 PZ  C  10  -0.00400     0.01214    -0.00292    -0.02164    -0.00628    -0.01358
  
  S  C  11  -0.13332    -0.03774     0.00619    -0.06221    -0.10819    -0.04092
 PX  C  11  -0.16136     0.05088     0.12804    -0.00149    -0.10549    -0.06933
 PY  C  11  -0.06300    -0.00477    -0.17018     0.19206    -0.04005    -0.08898
 PZ  C  11  -0.01375     0.00648     0.01534    -0.01862    -0.00986    -0.01639
  
  S  H  12  -0.07321     0.00043     0.20054    -0.18557    -0.06984     0.02366
  
  S  C  13   0.07182    -0.05330    -0.01794     0.05287    -0.07345    -0.02669
 PX  C  13   0.19161     0.07689     0.05207    -0.12204    -0.19540     0.10358
 PY  C  13   0.07435     0.03868    -0.20426     0.11189    -0.01652    -0.07268
 PZ  C  13  -0.00262     0.00417     0.00022    -0.00717     0.00246    -0.00511
  
  S  H  14  -0.01769     0.00567     0.33990     0.11706    -0.06317     0.18556
  
  S  H  15  -0.22397    -0.06396     0.00267    -0.12760     0.12053     0.02375
  
  S  H  16   0.13242    -0.01023     0.14921     0.20439     0.08038    -0.28010
  
  S  H  17  -0.14292     0.00908    -0.14127    -0.20079     0.02184     0.26521
  
  S  H  18   0.15137    -0.06434     0.02795     0.09229     0.19795     0.10101
  
  S  H  19   0.07761     0.01883    -0.32360    -0.09964     0.01190    -0.09982
  
  S  H  20   0.00261    -0.04199    -0.19708     0.16361     0.03946    -0.11831
  
  S  C  21   0.18393     0.01525    -0.01446    -0.05676    -0.01532     0.05325
 PX  C  21   0.00795    -0.17784     0.06450    -0.22126    -0.12356    -0.13408
 PY  C  21  -0.12750    -0.13590    -0.10890     0.22227    -0.19336     0.13727
 PZ  C  21  -0.00600    -0.00396     0.00572    -0.01028    -0.00917    -0.01416
  
  S  C  22  -0.16995    -0.01013    -0.01833     0.10379    -0.05212     0.00708
 PX  C  22  -0.14447    -0.05859     0.04778     0.00647     0.30405    -0.11743
 PY  C  22  -0.01084     0.26665     0.02978     0.01455     0.06525     0.00356
 PZ  C  22  -0.00510     0.00103     0.00439    -0.00550    -0.00833    -0.01497
  
  S  C  23   0.15580     0.03475     0.01917    -0.10657    -0.05463    -0.03512
 PX  C  23   0.08845     0.19796    -0.02991     0.05579     0.11131     0.21696
 PY  C  23   0.17584    -0.16823    -0.00451    -0.08373     0.16261     0.02993
 PZ  C  23  -0.01089    -0.01191     0.00252     0.00084    -0.01361    -0.01987
  
  S  C  24  -0.16985     0.00230     0.01094     0.05852     0.00728    -0.03079
 PX  C  24   0.09177    -0.20505     0.02867    -0.12145    -0.13088    -0.20077
 PY  C  24  -0.03079    -0.15124    -0.12171     0.27897    -0.08485     0.19502
 PZ  C  24  -0.01216    -0.00537    -0.00517     0.02037    -0.00577     0.00707
  
  S  H  25   0.18400     0.05706     0.10759    -0.28400     0.09408    -0.13084
  
  S  H  26  -0.20260    -0.06006     0.03021     0.05811     0.23477    -0.10053
  
  S  H  27   0.23465    -0.01416    -0.00793    -0.08687     0.14279     0.10695
  
  S  H  28  -0.14056    -0.04213    -0.10135     0.29048    -0.01305     0.21200
  
  S  C  29  -0.05542    -0.06738    -0.09205     0.18539     0.10728     0.02672
 PX  C  29   0.10808     0.19757    -0.02987     0.10618     0.06687     0.15464
 PY  C  29   0.12561    -0.15185     0.04646    -0.10428     0.17779     0.06483
 PZ  C  29  -0.00469     0.00583     0.01055    -0.01432     0.00641    -0.01218
  
  S  C  30   0.08604     0.00893     0.09339    -0.18044     0.07461     0.00422
 PX  C  30  -0.17470    -0.03229     0.01358    -0.00512     0.26023    -0.09150
 PY  C  30  -0.07208     0.28793     0.04032    -0.05085    -0.02237    -0.03234
 PZ  C  30  -0.02184     0.02079     0.00896    -0.00847     0.01404    -0.01347




    ROOT NO.   25          26          27          28          29          30

           -14.92184   -14.88106   -14.63440   -14.44024   -13.64171   -13.40742
  
  
  S  C   1  -0.02016    -0.01793    -0.01707     0.03453    -0.04592     0.00638
 PX  C   1  -0.22628     0.08511     0.14287    -0.12510    -0.06633    -0.02646
 PY  C   1  -0.17686    -0.26381    -0.01091    -0.05834    -0.03002     0.01643
 PZ  C   1  -0.00307    -0.04333     0.09089     0.05509    -0.02061     0.25538
  
  S  C   2  -0.08565    -0.07496     0.02097    -0.05170     0.03943    -0.00310
 PX  C   2   0.18949    -0.10684    -0.13175     0.08997     0.09920     0.00705
 PY  C   2  -0.15605    -0.01228     0.00110     0.03455     0.03893    -0.02625
 PZ  C   2   0.01968    -0.05414     0.10654     0.07588    -0.01262     0.26321
  
  S  C   3   0.05434     0.05385     0.00411     0.00102    -0.03681     0.00509
 PX  C   3   0.06519    -0.06571    -0.00197    -0.04502    -0.19639    -0.00755
 PY  C   3   0.06581     0.15388     0.06521    -0.03748    -0.01014     0.03241
 PZ  C   3   0.03650    -0.08448     0.18639     0.13126    -0.01586     0.30902
  
  S  C   4  -0.00652     0.05458     0.02416    -0.00979    -0.01712    -0.00467
 PX  C   4  -0.11988     0.08896     0.02838     0.05384    -0.17921     0.00650
 PY  C   4  -0.15526    -0.14977    -0.02232     0.01317    -0.19672    -0.03602
 PZ  C   4   0.02578    -0.07620     0.18647     0.13583    -0.01662     0.31866
  
  S  C   5   0.06514    -0.02986    -0.05216     0.05126     0.02289     0.00561
 PX  C   5   0.08682    -0.06395    -0.00055    -0.07458     0.16859    -0.00651
 PY  C   5  -0.21815    -0.18924    -0.00654    -0.03379     0.13606     0.01600
 PZ  C   5   0.00533    -0.05653     0.11270     0.08516    -0.01115     0.28343
  
  S  C   6  -0.00476    -0.00800     0.01557    -0.02746    -0.04245    -0.00492
 PX  C   6   0.12612    -0.08456    -0.12017     0.12006    -0.15987    -0.00121
 PY  C   6   0.13226     0.27039     0.03701     0.03565    -0.10791    -0.03163
 PZ  C   6   0.01171    -0.04002     0.08304     0.07127    -0.02646     0.26349
  
  S  C   7  -0.04432     0.03379     0.05324    -0.02925     0.02743     0.01499
 PX  C   7  -0.10418     0.03808     0.03719     0.02229     0.21786     0.02485
 PY  C   7   0.03063    -0.17532     0.04172    -0.20883     0.10245     0.01347
 PZ  C   7   0.05356    -0.09676     0.19652     0.11838    -0.02413     0.16904
  
  S  C   8   0.03880     0.03157    -0.01285     0.02677     0.00201    -0.00047
 PX  C   8   0.08471    -0.10593    -0.15125     0.15920     0.25317     0.02084
 PY  C   8   0.19170     0.14964     0.05816    -0.13349     0.15582     0.00081
 PZ  C   8   0.04761    -0.06174     0.19414     0.12824     0.01199     0.17008
  
  S  C   9   0.02526    -0.03652     0.01598    -0.03452     0.00389     0.00206
 PX  C   9  -0.06766     0.10651     0.17369    -0.19997    -0.24545    -0.01881
 PY  C   9   0.01367     0.01208     0.09453    -0.15941    -0.08357     0.04921
 PZ  C   9   0.05986    -0.08863     0.27799     0.16658     0.01015     0.03530
  
  S  C  10  -0.01816     0.03402    -0.02766     0.02759     0.00071    -0.01325
 PX  C  10   0.05883     0.14275    -0.06816     0.20061    -0.17425     0.01582
 PY  C  10   0.00002     0.10292    -0.05921     0.10992    -0.14104    -0.04851
 PZ  C  10   0.06345    -0.10042     0.27118     0.16900    -0.01540     0.03354
  
  S  C  11   0.02972    -0.02979    -0.05236     0.04233     0.00411    -0.00627
 PX  C  11  -0.05119    -0.14088     0.04198    -0.21361     0.18144    -0.00217
 PY  C  11  -0.15717     0.22401    -0.01096     0.21079     0.21286     0.02670
 PZ  C  11   0.04234    -0.09349     0.23555     0.10016     0.01627    -0.13525
  
  S  H  12   0.11424    -0.24147     0.01845    -0.23089    -0.09333    -0.03090
  
  S  C  13  -0.06913    -0.04461     0.01587    -0.04026    -0.02318     0.00546
 PX  C  13   0.16407    -0.02069    -0.00480    -0.08876     0.22546     0.02071
 PY  C  13  -0.10627    -0.04580    -0.19742     0.32797     0.08711    -0.04626
 PZ  C  13   0.04401    -0.06157     0.23522     0.13485     0.02387    -0.13236
  
  S  H  14  -0.08925     0.16267    -0.00627     0.13900     0.03479    -0.00616
  
  S  H  15   0.23138     0.16959    -0.06706     0.11750     0.03346    -0.01286
  
  S  H  16   0.15886    -0.07215    -0.04655    -0.00734     0.03759     0.02899
  
  S  H  17  -0.17645    -0.13691    -0.02623     0.02784     0.04976     0.02495
  
  S  H  18  -0.11843     0.06734     0.11455    -0.12797     0.13728    -0.00812
  
  S  H  19   0.12877     0.16989     0.09767    -0.14109     0.03020    -0.00480
  
  S  H  20  -0.18263    -0.03596    -0.12975     0.27265    -0.05235    -0.04658
  
  S  C  21   0.07023     0.03581    -0.01254     0.04266    -0.02311    -0.00693
 PX  C  21  -0.02681    -0.01174    -0.07053     0.09442     0.19669     0.00997
 PY  C  21   0.16427    -0.20408    -0.09906     0.00500     0.02290    -0.04665
 PZ  C  21   0.01679    -0.04231     0.16086     0.07804     0.03850    -0.24386
  
  S  C  22  -0.00494    -0.00717     0.02052    -0.04173     0.05292     0.00935
 PX  C  22  -0.20150    -0.06072     0.02790    -0.03941    -0.18743    -0.01440
 PY  C  22  -0.05327     0.23303     0.13767    -0.07940     0.00897     0.06736
 PZ  C  22   0.00250    -0.02160     0.12801     0.05440     0.04196    -0.21798
  
  S  C  23  -0.01354     0.03067    -0.01072     0.03030     0.06678     0.00752
 PX  C  23   0.24421     0.07001    -0.00590     0.04594    -0.10250    -0.02252
 PY  C  23   0.06363    -0.20987    -0.13824     0.10794    -0.16354    -0.07948
 PZ  C  23  -0.00644    -0.02508     0.13193     0.04822     0.04744    -0.21484
  
  S  C  24  -0.05354     0.05832     0.06125    -0.04199    -0.00831     0.00483
 PX  C  24  -0.20797    -0.10101    -0.00883    -0.02127     0.13517     0.00380
 PY  C  24   0.16244    -0.08965     0.01831    -0.10700     0.06494     0.04092
 PZ  C  24   0.02888    -0.03332     0.17023     0.06568     0.03607    -0.23350
  
  S  H  25  -0.10446     0.17524     0.05232     0.03657     0.03918     0.04366
  
  S  H  26  -0.18318    -0.06640     0.03151    -0.05730    -0.15430    -0.00994
  
  S  H  27   0.15817    -0.11269    -0.11945     0.12018    -0.15351    -0.06618
  
  S  H  28   0.17974    -0.00731     0.05022    -0.09304    -0.00934     0.02884
  
  S  C  29  -0.03634    -0.04464    -0.01923     0.03219    -0.00809    -0.00183
 PX  C  29   0.08981     0.01167     0.04245    -0.08975    -0.21899    -0.00770
 PY  C  29   0.08995    -0.15527    -0.03289    -0.04235    -0.20470    -0.01346
 PZ  C  29   0.03962    -0.07754     0.26737     0.12362     0.02054    -0.29441
  
  S  C  30   0.05880    -0.04163    -0.02811    -0.01646     0.00570    -0.00236
 PX  C  30  -0.11318     0.02279    -0.03328     0.09697    -0.22245    -0.01438
 PY  C  30  -0.03541     0.17966     0.00379     0.03509    -0.03089     0.01348
 PZ  C  30   0.03448    -0.04839     0.27137     0.13830     0.01972    -0.29019




    ROOT NO.   31          32          33          34          35          36

           -13.17456   -12.87565   -12.21016   -11.83300   -11.72874   -11.32494
  
  
  S  C   1   0.02750    -0.00882     0.01493    -0.00681    -0.00149     0.01512
 PX  C   1  -0.09907     0.27022    -0.08606     0.02356     0.01771     0.14014
 PY  C   1   0.20718     0.08850     0.19968    -0.01744    -0.09834     0.07772
 PZ  C   1  -0.03158     0.01692     0.03369    -0.27297     0.18673     0.02281
  
  S  C   2   0.00956     0.01560    -0.02792     0.01772     0.02609    -0.03934
 PX  C   2   0.07502    -0.26944     0.03474     0.00226     0.00315    -0.17516
 PY  C   2  -0.13164    -0.09991    -0.23123     0.05069     0.13002    -0.14582
 PZ  C   2  -0.03534    -0.00011     0.01686    -0.19145     0.12811     0.00776
  
  S  C   3   0.00511    -0.03140     0.01936    -0.00541    -0.00342     0.02780
 PX  C   3   0.05041     0.21951    -0.08314     0.04826     0.07458     0.21503
 PY  C   3   0.07043     0.09531     0.29609    -0.09706    -0.20152     0.13916
 PZ  C   3  -0.05839    -0.00274    -0.02453    -0.03166     0.01843    -0.00508
  
  S  C   4  -0.00291     0.04661     0.00470     0.00215     0.00262    -0.00663
 PX  C   4   0.12591    -0.18165     0.18089    -0.04237    -0.09325    -0.15165
 PY  C   4   0.03204    -0.02577    -0.23822     0.10284     0.19002    -0.13092
 PZ  C   4  -0.05818    -0.00289    -0.00232    -0.05209     0.04669    -0.00832
  
  S  C   5   0.01335    -0.02324    -0.02403     0.00950     0.02362     0.02107
 PX  C   5  -0.12020     0.21256    -0.15222     0.03129     0.07228     0.14816
 PY  C   5   0.11860     0.07837     0.16687    -0.02258    -0.09461     0.08188
 PZ  C   5  -0.03642    -0.00201     0.03720    -0.21656     0.14691     0.00513
  
  S  C   6   0.01661     0.01215     0.00717     0.00523    -0.00377    -0.00963
 PX  C   6   0.17171    -0.21308     0.11090     0.00119    -0.04417    -0.09902
 PY  C   6  -0.16712    -0.07945    -0.18894     0.03050     0.08985    -0.09249
 PZ  C   6  -0.02845    -0.01186     0.04168    -0.28490     0.19749     0.00310
  
  S  C   7  -0.00440     0.07272     0.00021     0.03024     0.02911    -0.01494
 PX  C   7  -0.03543    -0.17342     0.07431    -0.02289    -0.05395    -0.23107
 PY  C   7   0.11314    -0.02839    -0.05023     0.09155     0.15428    -0.15070
 PZ  C   7  -0.03914     0.01165    -0.05895     0.14048    -0.10211     0.00219
  
  S  C   8   0.00532    -0.06630    -0.02895     0.03972     0.05180     0.01594
 PX  C   8   0.08253     0.06413    -0.03710     0.07740     0.08844     0.22411
 PY  C   8  -0.12983     0.04828     0.13564    -0.10539    -0.15267     0.09591
 PZ  C   8  -0.04373     0.00931    -0.00071     0.12656    -0.08376     0.00043
  
  S  C   9  -0.03599     0.04816     0.00165     0.01254     0.00284    -0.01649
 PX  C   9  -0.09622    -0.01266     0.07252    -0.09618    -0.11775    -0.23021
 PY  C   9   0.25020     0.05141     0.08025     0.16831     0.24314    -0.09203
 PZ  C   9  -0.01362     0.01453    -0.01398     0.28843    -0.17147    -0.01842
  
  S  C  10  -0.02710    -0.06576    -0.01454    -0.01672     0.01250    -0.00598
 PX  C  10   0.17895     0.02844     0.03691     0.12418     0.12938     0.28204
 PY  C  10  -0.20494     0.03867    -0.00669    -0.18080    -0.21445     0.12678
 PZ  C  10  -0.04561     0.01380    -0.05324     0.25269    -0.22878    -0.00473
  
  S  C  11   0.00478     0.09263     0.02654     0.02613     0.04026     0.01698
 PX  C  11  -0.16369     0.02821    -0.00679    -0.10848    -0.08156    -0.27549
 PY  C  11   0.05261     0.07983     0.12920     0.11876     0.12481    -0.10058
 PZ  C  11  -0.02579    -0.00058    -0.02567     0.07218    -0.12742    -0.03930
  
  S  H  12  -0.10697    -0.01130    -0.11328    -0.15392    -0.15835    -0.03481
  
  S  C  13  -0.00529    -0.08123     0.00494     0.03130     0.03660    -0.00254
 PX  C  13  -0.09730    -0.15583     0.05362     0.07158     0.05055     0.20614
 PY  C  13  -0.11838    -0.01134    -0.14063    -0.12708    -0.15982     0.11963
 PZ  C  13   0.01075     0.00527     0.02003     0.13620    -0.05793    -0.02088
  
  S  H  14  -0.10767    -0.02461     0.08969    -0.09924    -0.15394     0.00636
  
  S  H  15  -0.11734    -0.20966    -0.12977     0.01573     0.06695    -0.13655
  
  S  H  16   0.14490    -0.03542     0.21000    -0.04351    -0.10712     0.02463
  
  S  H  17   0.15928    -0.04700     0.21844    -0.04154    -0.11605     0.00940
  
  S  H  18  -0.15566     0.21841    -0.10489     0.00821     0.03403     0.10265
  
  S  H  19  -0.14045    -0.01806     0.12772    -0.12057    -0.17602    -0.00274
  
  S  H  20  -0.04395     0.03311    -0.14634    -0.14311    -0.16739    -0.01020
  
  S  C  21   0.02120     0.02245     0.02815     0.02132     0.02969     0.03630
 PX  C  21   0.10446     0.22363    -0.09016    -0.08756    -0.06893    -0.21345
 PY  C  21  -0.21297     0.09614     0.14923     0.03784     0.06466    -0.07787
 PZ  C  21   0.02949    -0.02368     0.02376    -0.19455     0.13026     0.03252
  
  S  C  22   0.00269    -0.01273    -0.00864    -0.00389    -0.00577    -0.02115
 PX  C  22  -0.12982    -0.19512     0.04470     0.04822     0.02571     0.13488
 PY  C  22   0.24378    -0.11888    -0.15569    -0.02501    -0.06603     0.09719
 PZ  C  22   0.04014    -0.04335     0.02312    -0.24035     0.18230     0.06841
  
  S  C  23   0.00813    -0.00489    -0.00877     0.00592    -0.00462     0.01356
 PX  C  23   0.15179     0.23610    -0.02052    -0.06686    -0.00101    -0.13380
 PY  C  23  -0.23270     0.11044     0.16058     0.03047     0.07215    -0.05255
 PZ  C  23   0.04125    -0.06266     0.02349    -0.22641     0.18928     0.08261
  
  S  C  24   0.02719    -0.01198     0.03034     0.01811     0.03266    -0.02622
 PX  C  24  -0.13378    -0.24907    -0.01999     0.03058    -0.01049     0.16553
 PY  C  24   0.13956    -0.10384    -0.19714    -0.06725    -0.11572     0.09727
 PZ  C  24   0.06384    -0.03540     0.01600    -0.17306     0.14309     0.04408
  
  S  H  25   0.23775     0.01213    -0.16990    -0.06924    -0.08760     0.00060
  
  S  H  26  -0.13348    -0.19591     0.04423     0.04862     0.02273     0.12942
  
  S  H  27  -0.11097     0.21207     0.11871    -0.00213     0.05183    -0.11494
  
  S  H  28   0.19141     0.00634    -0.16160    -0.07734    -0.09065     0.00565
  
  S  C  29  -0.01040    -0.03199    -0.01796    -0.00245    -0.00730    -0.01222
 PX  C  29  -0.12073    -0.18418     0.11701     0.10272     0.08304     0.22436
 PY  C  29   0.09849    -0.04049    -0.22864    -0.14582    -0.16451     0.11089
 PZ  C  29   0.01992    -0.02006     0.01821    -0.07923     0.02834    -0.00437
  
  S  C  30  -0.00744     0.03531    -0.00249    -0.01010     0.00148     0.00794
 PX  C  30   0.08391     0.20216    -0.06829    -0.09947    -0.07791    -0.20132
 PY  C  30  -0.11757     0.10570     0.26181     0.14434     0.16804    -0.08725
 PZ  C  30   0.03923     0.00680     0.05600    -0.03808     0.07221    -0.02746




    ROOT NO.   37          38          39          40          41          42

           -10.60587    -9.83764    -9.66991    -8.25258    -8.07739    -6.66848
  
  
  S  C   1   0.00481    -0.00818     0.00743     0.00943     0.00243    -0.00503
 PX  C   1  -0.00658     0.01182    -0.00746    -0.01299    -0.01251     0.00869
 PY  C   1   0.00039     0.01402    -0.00380    -0.00881    -0.00699     0.00572
 PZ  C   1   0.08972    -0.34460     0.16608     0.28839     0.19536    -0.18216
  
  S  C   2  -0.00232     0.00083    -0.00361    -0.00126     0.00421    -0.00001
 PX  C   2  -0.00247     0.00098    -0.00583    -0.00235     0.01115     0.00048
 PY  C   2   0.00222    -0.00726     0.00517     0.00835     0.00660    -0.00449
 PZ  C   2   0.20734    -0.15066     0.32794     0.35080    -0.10321    -0.22112
  
  S  C   3   0.00131    -0.00113     0.00285     0.00383    -0.00784    -0.00282
 PX  C   3  -0.00936    -0.00581    -0.00583     0.00159    -0.01469    -0.00254
 PY  C   3   0.00466     0.01036     0.00382    -0.00589    -0.00737     0.00396
 PZ  C   3   0.24340     0.22692     0.25681    -0.03633    -0.36219     0.13913
  
  S  C   4   0.00745    -0.00600     0.00366     0.00039     0.01242     0.00731
 PX  C   4   0.01065     0.00986     0.00742     0.00277     0.00789     0.00351
 PY  C   4  -0.00096    -0.00742    -0.00162     0.00862     0.01027    -0.00119
 PZ  C   4  -0.21155     0.29741    -0.21470    -0.11170    -0.33556    -0.14160
  
  S  C   5  -0.00380    -0.00371    -0.00543    -0.00456    -0.00233     0.00044
 PX  C   5  -0.00882    -0.00936    -0.00630    -0.00318    -0.00536    -0.00199
 PY  C   5   0.01266     0.00334     0.01341     0.01003    -0.00476    -0.00679
 PZ  C   5  -0.21366    -0.04868    -0.32790    -0.34823     0.07571     0.21710
  
  S  C   6  -0.00092     0.00712    -0.00004     0.00083    -0.00409    -0.00133
 PX  C   6   0.00711     0.01736     0.00896     0.00838    -0.01106    -0.00725
 PY  C   6  -0.00210     0.00107     0.00235     0.00610    -0.00130    -0.00454
 PZ  C   6  -0.10819    -0.29427    -0.18074    -0.16312     0.31739     0.18495
  
  S  C   7   0.02046     0.00786     0.00518    -0.01088     0.00495     0.00974
 PX  C   7   0.03035     0.01655     0.01608    -0.01138     0.01404     0.01530
 PY  C   7  -0.01096    -0.00632    -0.01923     0.00872     0.00913    -0.01972
 PZ  C   7   0.35427     0.16878     0.21828    -0.22356     0.03342     0.35170
  
  S  C   8   0.00373    -0.00562    -0.00475    -0.00338    -0.00550    -0.00660
 PX  C   8   0.01582    -0.02537    -0.00439    -0.01344    -0.00875     0.00152
 PY  C   8   0.00995    -0.01061     0.01406    -0.01051     0.00313     0.01833
 PZ  C   8  -0.32354     0.24633    -0.18418     0.23135    -0.06232    -0.36570
  
  S  C   9  -0.00897     0.00749     0.00170     0.01378     0.01832     0.00590
 PX  C   9  -0.01251     0.02535     0.00854     0.01264     0.01502     0.00488
 PY  C   9   0.03826     0.00275    -0.01632    -0.01280    -0.01158    -0.00651
 PZ  C   9  -0.26582     0.01564    -0.00881     0.30856     0.30180     0.00045
  
  S  C  10  -0.01788    -0.00394    -0.00347     0.00880    -0.02384    -0.00237
 PX  C  10   0.01467    -0.02079    -0.01554    -0.00300    -0.01450    -0.00684
 PY  C  10  -0.03256     0.00453     0.01572     0.00792    -0.02344     0.00912
 PZ  C  10   0.25422    -0.01338    -0.00631    -0.14228     0.40234    -0.01081
  
  S  C  11   0.00253    -0.00229    -0.00362    -0.00173     0.00053    -0.00410
 PX  C  11  -0.03347     0.03568     0.02751     0.01865    -0.00180     0.02782
 PY  C  11   0.04124    -0.00355    -0.01301    -0.01116     0.00621    -0.01146
 PZ  C  11   0.29882    -0.21737    -0.23940    -0.20158     0.05476    -0.38554
  
  S  H  12  -0.03742     0.00837     0.01302     0.00859    -0.00327     0.00426
  
  S  C  13   0.00832     0.00088    -0.00493    -0.00726    -0.00413    -0.01030
 PX  C  13   0.00626    -0.02077    -0.00255    -0.00701    -0.00947    -0.00234
 PY  C  13  -0.01918    -0.00918     0.00553    -0.00098    -0.00187    -0.00347
 PZ  C  13  -0.34617    -0.21005     0.18876     0.20148    -0.04103     0.38912
  
  S  H  14  -0.00059     0.00469     0.00961     0.00291    -0.00143    -0.00107
  
  S  H  15  -0.00092    -0.00173    -0.00049    -0.00026     0.00291     0.00058
  
  S  H  16   0.00068     0.00591    -0.00181    -0.00347    -0.00141     0.00097
  
  S  H  17   0.00993     0.00619     0.00726     0.00167    -0.00152    -0.00029
  
  S  H  18  -0.00492    -0.00649    -0.00453    -0.00481     0.00064     0.00255
  
  S  H  19  -0.00710     0.00714     0.00990     0.00179     0.00182     0.00532
  
  S  H  20  -0.02604    -0.00173     0.00947     0.00564    -0.00043     0.00536
  
  S  C  21   0.00784    -0.00073    -0.00529    -0.00066    -0.00074    -0.00255
 PX  C  21  -0.01161     0.01151     0.01480    -0.00595     0.00656    -0.00296
 PY  C  21   0.00264     0.00926     0.00813    -0.00601     0.00409    -0.00445
 PZ  C  21   0.22187     0.13630    -0.33095     0.32361    -0.08180     0.23602
  
  S  C  22   0.00167     0.00105    -0.00231     0.00316    -0.00002     0.00278
 PX  C  22  -0.00026    -0.00875    -0.00348     0.00141    -0.00300     0.00145
 PY  C  22  -0.00425    -0.01875    -0.00577    -0.00072    -0.00730    -0.00120
 PZ  C  22   0.13108     0.37353    -0.14000     0.27677     0.20062     0.20349
  
  S  C  23  -0.00193    -0.01020    -0.00076     0.00174    -0.00622     0.00597
 PX  C  23   0.00330     0.04170     0.01162    -0.00913     0.02454    -0.01724
 PY  C  23   0.00308     0.01744     0.00744    -0.00397     0.00744    -0.00408
 PZ  C  23  -0.05882     0.35828     0.22022    -0.14192     0.29647    -0.19659
  
  S  C  24  -0.00270     0.00749     0.01709    -0.02054     0.00558    -0.01765
 PX  C  24  -0.01523    -0.02495     0.00839    -0.00588    -0.01064     0.00139
 PY  C  24  -0.00282    -0.02351    -0.02599     0.02556    -0.01372     0.02059
 PZ  C  24  -0.18849     0.11667     0.36227    -0.32975     0.07197    -0.24571
  
  S  H  25  -0.00989    -0.00622     0.00106     0.00028    -0.00190     0.00045
  
  S  H  26  -0.00098    -0.01131    -0.00347     0.00109    -0.00490     0.00125
  
  S  H  27   0.00561     0.02572     0.00581    -0.00290     0.01134    -0.00619
  
  S  H  28  -0.00242    -0.00550    -0.01399     0.01393    -0.00625     0.00963
  
  S  C  29   0.00003     0.00495     0.00390     0.00089     0.00783     0.00506
 PX  C  29   0.00261    -0.00883    -0.00192    -0.00142     0.00178    -0.00129
 PY  C  29  -0.04023    -0.00123     0.01161     0.00870    -0.00100     0.00776
 PZ  C  29   0.19457    -0.25915    -0.27103    -0.03780    -0.32074    -0.13916
  
  S  C  30  -0.00008     0.00736     0.00030     0.00282     0.00448     0.00205
 PX  C  30   0.00379     0.03515    -0.00843     0.01168     0.02056    -0.00759
 PY  C  30   0.04570     0.03109    -0.01887     0.00317     0.02921    -0.01332
 PZ  C  30  -0.23245    -0.26181     0.22216    -0.12548    -0.29803     0.14015




    ROOT NO.   43          44          45          46          47          48

            -1.03007     0.25050     0.29153     1.27868     1.37704     1.84237
  
  
  S  C   1   0.00599    -0.00325    -0.01141    -0.01187    -0.01121    -0.00620
 PX  C   1  -0.00808    -0.00398     0.01407     0.00615     0.01315     0.00403
 PY  C   1  -0.00298    -0.00402     0.00782     0.00237     0.01048     0.00136
 PZ  C   1   0.17835     0.05744    -0.33478    -0.17289    -0.34184    -0.08897
  
  S  C   2   0.00081     0.00277     0.00250     0.00710     0.00429     0.00381
 PX  C   2   0.00775    -0.00091    -0.00958    -0.00574    -0.00793    -0.00300
 PY  C   2  -0.00028     0.00557     0.00204     0.00868     0.00065     0.00612
 PZ  C   2  -0.23304     0.22970     0.25382     0.34022     0.14791     0.20120
  
  S  C   3  -0.00687    -0.00457     0.00151    -0.01945     0.00284    -0.02045
 PX  C   3  -0.00751    -0.00681     0.00822    -0.00364     0.00947    -0.00244
 PY  C   3  -0.00078     0.00173    -0.00201    -0.00335    -0.00112    -0.00375
 PZ  C   3  -0.12921    -0.31333     0.21041    -0.26328     0.24249    -0.23550
  
  S  C   4   0.00875    -0.01292     0.00629     0.01504     0.00330     0.01733
 PX  C   4   0.00250    -0.00034     0.00253     0.00773    -0.00216     0.00516
 PY  C   4  -0.00085    -0.00616     0.01015     0.00172     0.00668    -0.00472
 PZ  C   4  -0.15555     0.23910    -0.25596    -0.24077    -0.28242    -0.21560
  
  S  C   5  -0.00541     0.00611     0.00054    -0.00430    -0.00031    -0.00681
 PX  C   5  -0.00295     0.00370    -0.00248    -0.00663     0.00007    -0.00715
 PY  C   5   0.00683    -0.00631    -0.00811    -0.01000     0.00172    -0.00570
 PZ  C   5  -0.22456     0.22620     0.25455     0.34516    -0.05966     0.20719
  
  S  C   6  -0.00253     0.00221     0.00241     0.00468    -0.00074     0.00248
 PX  C   6  -0.00644     0.01084     0.00059     0.00744    -0.00838     0.00433
 PY  C   6  -0.00108     0.00447    -0.00300     0.00117    -0.00825     0.00102
 PZ  C   6   0.20855    -0.35345     0.00501    -0.18670     0.29500    -0.10041
  
  S  C   7   0.01212     0.00809    -0.00755     0.01925    -0.01037     0.01561
 PX  C   7   0.01688     0.00057    -0.00978     0.00394    -0.00838     0.00194
 PY  C   7  -0.01572     0.01680     0.00848    -0.01057     0.00913    -0.03018
 PZ  C   7   0.35227    -0.11709    -0.18068     0.21258    -0.19182     0.33749
  
  S  C   8  -0.00091     0.00570    -0.01102    -0.00553     0.00512     0.01057
 PX  C   8  -0.00493     0.00012    -0.00395    -0.00359     0.00512     0.00936
 PY  C   8  -0.01173     0.00313     0.00921    -0.00432    -0.00557    -0.00895
 PZ  C   8   0.37489    -0.16309    -0.17438     0.19078     0.21181     0.32151
  
  S  C   9  -0.00080     0.00091     0.02035     0.00635    -0.01424    -0.03168
 PX  C   9  -0.00111     0.00258     0.00354     0.00066    -0.00511    -0.00797
 PY  C   9  -0.00829    -0.00934    -0.01756    -0.00401    -0.00331     0.02374
 PZ  C   9   0.00499    -0.10566     0.41897     0.01091    -0.00478    -0.27138
  
  S  C  10  -0.00131    -0.03372    -0.00237    -0.00681     0.00435     0.03643
 PX  C  10  -0.00376    -0.00926     0.00293     0.00124     0.00079     0.00721
 PY  C  10   0.00551    -0.01613    -0.00376     0.00483    -0.00009     0.02466
 PZ  C  10  -0.00771     0.42577    -0.06682     0.00370     0.00528    -0.27353
  
  S  C  11  -0.00292     0.00947     0.00532     0.00339    -0.00701    -0.02453
 PX  C  11   0.02848    -0.00296     0.01069     0.01469    -0.01511    -0.01034
 PY  C  11  -0.00649    -0.00423    -0.00058    -0.00499     0.00083     0.00623
 PZ  C  11  -0.37373    -0.15066    -0.14333    -0.23656     0.19750     0.32881
  
  S  H  12  -0.00002    -0.00370    -0.00221    -0.00469     0.00816     0.01627
  
  S  C  13   0.01493     0.01212    -0.00153    -0.00033     0.02120    -0.00005
 PX  C  13   0.00784     0.00693     0.00401    -0.00080     0.00912    -0.00427
 PY  C  13   0.00699     0.00294     0.00792     0.00505     0.00243    -0.01387
 PZ  C  13  -0.36387    -0.13410    -0.13087    -0.20415    -0.21288     0.33892
  
  S  H  14  -0.00661    -0.00052     0.00633    -0.01165     0.00879    -0.01602
  
  S  H  15  -0.00387     0.00366     0.00785     0.01031     0.00775     0.00635
  
  S  H  16  -0.00068     0.00121    -0.00121    -0.00152    -0.00230    -0.00077
  
  S  H  17   0.00182    -0.00068    -0.00076     0.00372    -0.00070     0.00542
  
  S  H  18  -0.00025     0.00022     0.00046    -0.00044     0.00128     0.00013
  
  S  H  19   0.00170    -0.00092     0.00549     0.00219    -0.00098    -0.00793
  
  S  H  20  -0.00474    -0.00394     0.00045    -0.00112    -0.00865     0.00262
  
  S  C  21   0.00051     0.00042     0.00572    -0.00352    -0.00791    -0.00069
 PX  C  21  -0.00329    -0.00342    -0.00597     0.00388     0.00414    -0.00014
 PY  C  21  -0.00235    -0.00397    -0.00251     0.00445     0.00063    -0.00293
 PZ  C  21   0.24688     0.23539     0.27544    -0.31054    -0.14557     0.20476
  
  S  C  22  -0.00110    -0.00334    -0.00311     0.00443     0.00137    -0.00018
 PX  C  22   0.00014     0.00255    -0.00072    -0.00097     0.00186    -0.00046
 PY  C  22   0.00185     0.00011     0.00540    -0.00325    -0.00608     0.00197
 PZ  C  22  -0.20290     0.03662    -0.34272     0.12488     0.38212    -0.09792
  
  S  C  23  -0.00218     0.00038    -0.00775     0.00701     0.00032    -0.00709
 PX  C  23  -0.00570    -0.01239     0.00688     0.00114    -0.01388     0.00227
 PY  C  23  -0.00036    -0.00162     0.00028     0.00145    -0.00153    -0.00045
 PZ  C  23  -0.20449    -0.33789     0.00422     0.20050    -0.37230    -0.07942
  
  S  C  24   0.01672     0.01856     0.01879    -0.02982     0.01743     0.02271
 PX  C  24   0.00401     0.00153     0.00455    -0.00209    -0.00421     0.00029
 PY  C  24  -0.01331    -0.01414    -0.01337     0.01841    -0.01164    -0.01118
 PZ  C  24   0.24021     0.23517     0.26366    -0.33157     0.12380     0.19311
  
  S  H  25  -0.00027     0.00107    -0.00238     0.00130     0.00543    -0.00055
  
  S  H  26   0.00216     0.00424     0.00268    -0.00423     0.00054     0.00041
  
  S  H  27   0.00127     0.00112     0.00488    -0.00591     0.00224     0.00494
  
  S  H  28  -0.00605    -0.00866    -0.00983     0.01846    -0.00778    -0.01597
  
  S  C  29  -0.00246     0.00540    -0.00957    -0.00597     0.01456     0.01363
 PX  C  29  -0.00713     0.00462    -0.00470    -0.00323     0.00593    -0.00041
 PY  C  29  -0.00266     0.01029    -0.00310    -0.00580     0.01066    -0.00078
 PZ  C  29   0.14122    -0.26366     0.16413     0.27801    -0.25472    -0.22522
  
  S  C  30  -0.00900    -0.01602     0.00034     0.01238    -0.02664    -0.01040
 PX  C  30  -0.00468    -0.01164     0.00831     0.00111    -0.01179    -0.00015
 PY  C  30  -0.01454    -0.01575     0.00870    -0.00804    -0.01683     0.01291
 PZ  C  30   0.13043     0.19688    -0.27353     0.22288     0.27424    -0.23003




    ROOT NO.   49          50          51          52          53          54

             2.42400     2.50440     2.87076     3.14733     3.37719     3.44438
  
  
  S  C   1   0.05976    -0.10747    -0.15002    -0.00896     0.24263    -0.04559
 PX  C   1   0.00171    -0.03132    -0.01583     0.00745    -0.00066    -0.09281
 PY  C   1  -0.00287    -0.02576    -0.02596     0.01447     0.02397     0.04957
 PZ  C   1   0.30760     0.13089    -0.01384    -0.26255     0.00499     0.04144
  
  S  C   2  -0.07550     0.16974     0.18275    -0.00229    -0.19073     0.18920
 PX  C   2  -0.00470     0.03583     0.01185    -0.00928     0.04176     0.05506
 PY  C   2  -0.02855     0.06400     0.05195     0.00174    -0.01386     0.05161
 PZ  C   2  -0.21901    -0.09617     0.01433     0.26703    -0.01647    -0.04592
  
  S  C   3   0.10967    -0.28187    -0.24883     0.00598     0.10643    -0.21063
 PX  C   3  -0.00444     0.01832     0.06462    -0.02088    -0.06815    -0.08330
 PY  C   3   0.01287    -0.05008    -0.03152     0.01726    -0.05336     0.11026
 PZ  C   3   0.03711     0.02877    -0.01005    -0.31997     0.03177     0.06462
  
  S  C   4  -0.10496     0.30939     0.26721    -0.04648    -0.02213    -0.16396
 PX  C   4  -0.01310     0.03979    -0.00471     0.00064     0.06191     0.08104
 PY  C   4   0.01091    -0.02483    -0.06541    -0.01310     0.10203    -0.13622
 PZ  C   4  -0.05809    -0.00733     0.04469     0.32328    -0.04226    -0.06499
  
  S  C   5   0.07176    -0.20294    -0.21947     0.02943     0.13306     0.23389
 PX  C   5   0.02505    -0.08099    -0.05336     0.01321    -0.04354     0.02544
 PY  C   5  -0.00890     0.00190     0.01446     0.00790    -0.04005    -0.00644
 PZ  C   5   0.22845     0.08389    -0.03130    -0.28149     0.02486     0.03651
  
  S  C   6  -0.04749     0.12960     0.16601    -0.01870    -0.20539    -0.16672
 PX  C   6  -0.00442     0.03566     0.03323    -0.00837    -0.02871    -0.00009
 PY  C   6   0.00224     0.02607     0.01208    -0.01434     0.04422    -0.07928
 PZ  C   6  -0.31369    -0.11824     0.02972     0.26723    -0.02178    -0.04061
  
  S  C   7  -0.09660     0.22587     0.09403     0.02733     0.07639     0.29507
 PX  C   7   0.01528    -0.04390    -0.10205     0.01470     0.09478    -0.00133
 PY  C   7  -0.03337     0.02873    -0.03287    -0.00580     0.07035     0.04345
 PZ  C   7   0.15784     0.05221    -0.01267     0.17013    -0.02827    -0.04518
  
  S  C   8   0.09121    -0.25806    -0.11065     0.02902    -0.19958     0.20362
 PX  C   8   0.00715    -0.00498     0.08006    -0.01315    -0.11573    -0.00551
 PY  C   8  -0.01144     0.05584     0.06401    -0.00473    -0.03366    -0.02312
 PZ  C   8  -0.14526    -0.05040    -0.02046    -0.16367     0.04423     0.03626
  
  S  C   9  -0.09300     0.23756    -0.04469     0.00520     0.35389    -0.11683
 PX  C   9  -0.00526    -0.01303    -0.08093     0.01558     0.01688     0.07880
 PY  C   9   0.00128    -0.01706    -0.02855    -0.00848    -0.02475    -0.15014
 PZ  C   9   0.32630     0.11130     0.00375     0.02586    -0.06479    -0.03348
  
  S  C  10   0.12199    -0.20758     0.05854    -0.02585    -0.25764    -0.27125
 PX  C  10   0.00827     0.01798     0.07417    -0.00489     0.05014    -0.07547
 PY  C  10   0.01483    -0.01069     0.04110     0.00809    -0.09248     0.11131
 PZ  C  10  -0.30773    -0.15280     0.02217    -0.03327     0.00507     0.00748
  
  S  C  11  -0.10439     0.18353    -0.17447     0.02940     0.08923     0.28018
 PX  C  11   0.01381    -0.02622    -0.04988     0.00765    -0.09152    -0.05316
 PY  C  11  -0.00734     0.02216    -0.05533     0.00007    -0.03302    -0.00677
 PZ  C  11   0.10692     0.06013    -0.01933    -0.13323    -0.01001    -0.01849
  
  S  H  12   0.05918    -0.10148     0.10460    -0.01970    -0.07733    -0.13670
  
  S  C  13   0.09005    -0.19950     0.15894    -0.00663    -0.21461     0.21525
 PX  C  13   0.01218     0.00013     0.07775    -0.00103     0.07451     0.02203
 PY  C  13  -0.01044     0.04452     0.01356    -0.00117     0.07902    -0.00825
 PZ  C  13  -0.12416    -0.04582     0.00693     0.13950     0.02292     0.03526
  
  S  H  14   0.04785    -0.13045    -0.06267    -0.01780    -0.06312    -0.14579
  
  S  H  15  -0.03998     0.06628     0.09315     0.01118    -0.15417     0.03775
  
  S  H  16   0.03894    -0.09625    -0.11039     0.00823     0.11728    -0.08917
  
  S  H  17  -0.03965     0.11182     0.13290    -0.01425    -0.10266    -0.12000
  
  S  H  18   0.02895    -0.08235    -0.10071     0.01417     0.11681     0.11421
  
  S  H  19  -0.05191     0.14237     0.06949    -0.01682     0.11988    -0.08142
  
  S  H  20  -0.04688     0.10362    -0.09803     0.00841     0.12289    -0.08816
  
  S  C  21  -0.07039     0.12857    -0.26262    -0.00080    -0.22816     0.13225
 PX  C  21   0.02326    -0.04124     0.04201    -0.00907    -0.05151    -0.04323
 PY  C  21  -0.00079     0.00762    -0.02294    -0.00026    -0.04320    -0.01342
 PZ  C  21  -0.22504    -0.10184     0.00874    -0.24154    -0.00145    -0.01365
  
  S  C  22   0.05215    -0.09555     0.23130     0.01646     0.30158    -0.03655
 PX  C  22  -0.01184     0.02450    -0.04406    -0.00151    -0.02635    -0.00489
 PY  C  22  -0.01028     0.00874    -0.00814     0.00411     0.01148     0.08670
 PZ  C  22   0.28412     0.13737    -0.01874     0.21932     0.00131     0.00612
  
  S  C  23  -0.05134     0.08987    -0.21035    -0.02991    -0.22942    -0.14473
 PX  C  23   0.00383    -0.02656     0.02380    -0.00329    -0.04162     0.06520
 PY  C  23   0.00831    -0.01943     0.04675    -0.00001     0.06788    -0.02955
 PZ  C  23  -0.27464    -0.14328     0.02497    -0.21693    -0.00653     0.00325
  
  S  C  24   0.08563    -0.12632     0.24447     0.03113     0.10163     0.22241
 PX  C  24  -0.00961     0.02315    -0.00436     0.00999     0.08514    -0.01729
 PY  C  24  -0.03082     0.03739    -0.04925    -0.00665     0.02220    -0.03350
 PZ  C  24   0.19732     0.12665    -0.04565     0.23501     0.00095    -0.02393
  
  S  H  25   0.04021    -0.07334     0.16439     0.00359     0.15551    -0.05730
  
  S  H  26  -0.03212     0.06088    -0.14358    -0.00836    -0.18932     0.03459
  
  S  H  27   0.03206    -0.05091     0.11804     0.02089     0.12584     0.09722
  
  S  H  28  -0.04906     0.07202    -0.15348    -0.01856    -0.08104    -0.11904
  
  S  C  29   0.09691    -0.19256     0.29816    -0.02673     0.06851    -0.14307
 PX  C  29  -0.01421     0.02788     0.01171     0.00151     0.10123    -0.01629
 PY  C  29  -0.00170    -0.00538     0.04500    -0.00040     0.01773     0.15192
 PZ  C  29   0.09625     0.03012     0.01732     0.30248     0.01314     0.01986
  
  S  C  30  -0.10568     0.19916    -0.28989     0.00382     0.02879    -0.19652
 PX  C  30   0.00061    -0.01334    -0.05393     0.00708    -0.10992     0.06396
 PY  C  30   0.00924    -0.02578     0.02392    -0.00421    -0.00935    -0.11283
 PZ  C  30  -0.07767    -0.04402     0.00046    -0.30363    -0.01729    -0.02626




    ROOT NO.   55          56          57          58          59          60

             3.60827     3.67107     3.78062     3.92555     4.22000     4.27607
  
  
  S  C   1   0.17890     0.32042     0.14082     0.17707     0.09366     0.10217
 PX  C   1  -0.03891    -0.05955    -0.07498     0.08565     0.06176     0.10300
 PY  C   1   0.03609     0.03266     0.03512    -0.04777    -0.03357    -0.02460
 PZ  C   1  -0.10775     0.02345    -0.01443    -0.01940    -0.00804     0.00782
  
  S  C   2  -0.03798    -0.07672     0.08121    -0.25994    -0.16948    -0.26588
 PX  C   2   0.07470     0.13285     0.10011     0.00660     0.00386     0.00446
 PY  C   2   0.03854     0.06142     0.06258     0.00525     0.02139     0.05580
 PZ  C   2   0.12226    -0.04912     0.00913     0.01736     0.00778    -0.01526
  
  S  C   3  -0.11734    -0.17886    -0.23398     0.11446     0.05595    -0.04804
 PX  C   3  -0.03241     0.02113     0.05237     0.01847    -0.02795    -0.17475
 PY  C   3  -0.03421    -0.10732    -0.02378    -0.15392    -0.08303    -0.07916
 PZ  C   3  -0.20588     0.10999    -0.00533    -0.02644    -0.01641     0.03251
  
  S  C   4   0.07029     0.23156     0.14728     0.17928     0.05799    -0.02280
 PX  C   4   0.06679     0.08326     0.06029    -0.09403    -0.07387    -0.13619
 PY  C   4  -0.03364    -0.02401    -0.11104     0.07734     0.02337    -0.14124
 PZ  C   4   0.21726    -0.09287     0.02132     0.02699     0.01361    -0.02341
  
  S  C   5   0.08939     0.04970     0.05605    -0.24378    -0.15930    -0.25550
 PX  C   5  -0.07166    -0.14526    -0.09771    -0.03090     0.01687     0.05053
 PY  C   5  -0.03945    -0.07538    -0.04313    -0.03129    -0.02252    -0.04887
 PZ  C   5  -0.13409     0.05273    -0.01352    -0.00850    -0.00363     0.01115
  
  S  C   6  -0.20809    -0.29108    -0.20185     0.06883     0.05871     0.05808
 PX  C   6  -0.01460    -0.01697    -0.00138    -0.00900    -0.00417     0.02170
 PY  C   6   0.03225     0.09159     0.02796     0.13158     0.08276     0.11756
 PZ  C   6   0.10005    -0.04373     0.00513     0.01393     0.00720    -0.00108
  
  S  C   7   0.12295     0.04302    -0.02410    -0.13391     0.00168     0.35345
 PX  C   7  -0.02186    -0.08513    -0.14472     0.03222     0.04969     0.03454
 PY  C   7  -0.02156    -0.02228    -0.08931     0.01460     0.02749    -0.03599
 PZ  C   7   0.20448    -0.12877     0.00508     0.02337     0.02107    -0.04954
  
  S  C   8  -0.05615    -0.13946     0.08222    -0.10745    -0.00595     0.35522
 PX  C   8   0.00500     0.07304     0.11953     0.08468     0.04268    -0.02296
 PY  C   8   0.01926     0.04151     0.04785     0.03784     0.02476     0.07659
 PZ  C   8  -0.21042     0.11140    -0.01926    -0.01239    -0.01109     0.01060
  
  S  C   9   0.03916    -0.04833    -0.28807    -0.06026    -0.10242    -0.06649
 PX  C   9  -0.01575    -0.07681    -0.01060    -0.07819    -0.03747     0.16558
 PY  C   9  -0.02776     0.00840     0.09957    -0.01423    -0.14290    -0.00863
 PZ  C   9   0.30125    -0.17279     0.04410     0.02009     0.02098    -0.00944
  
  S  C  10  -0.02723     0.08687     0.28044     0.06243    -0.11268    -0.08435
 PX  C  10   0.05374     0.03886    -0.05359    -0.09095    -0.14506     0.08698
 PY  C  10   0.02744     0.01643     0.08317    -0.02358     0.04364     0.12653
 PZ  C  10  -0.29893     0.19189     0.01537    -0.01396    -0.04020     0.02458
  
  S  C  11  -0.07430    -0.13697     0.00818     0.12955     0.33295    -0.13577
 PX  C  11  -0.04338     0.00299     0.13977     0.08880     0.00988    -0.04269
 PY  C  11  -0.00997    -0.02073     0.06358     0.04062    -0.07536     0.02017
 PZ  C  11   0.22062    -0.14541     0.01900     0.01746     0.02747    -0.02239
  
  S  H  12   0.06631     0.09313    -0.02005    -0.07364    -0.29360     0.14328
  
  S  C  13   0.02982     0.10523    -0.02818     0.09560     0.34130    -0.13235
 PX  C  13   0.04085     0.02352    -0.15732     0.02118    -0.04462    -0.01359
 PY  C  13   0.02233    -0.00380    -0.10303     0.00447     0.05001    -0.03843
 PZ  C  13  -0.23404     0.14580    -0.03104    -0.01295     0.00538     0.00219
  
  S  H  14  -0.09538    -0.03848     0.02220     0.08221     0.01327    -0.30875
  
  S  H  15  -0.10872    -0.20729    -0.09079    -0.11327    -0.05348    -0.02017
  
  S  H  16   0.03138     0.04399    -0.05326     0.16267     0.12408     0.23657
  
  S  H  17  -0.05937    -0.04571    -0.03324     0.15453     0.12054     0.24201
  
  S  H  18   0.12710     0.17114     0.12536    -0.04769    -0.03273     0.00588
  
  S  H  19   0.04227     0.10231    -0.04875     0.06301     0.01915    -0.32376
  
  S  H  20  -0.01891    -0.08116     0.01904    -0.04082    -0.29068     0.13504
  
  S  C  21   0.03412     0.05079    -0.06635     0.31126    -0.26057    -0.01274
 PX  C  21   0.05839     0.10322    -0.15791    -0.04683    -0.03849    -0.00243
 PY  C  21   0.02140     0.04664    -0.05416    -0.05159     0.05453    -0.00094
 PZ  C  21   0.14635    -0.09222     0.01335     0.00326     0.01410    -0.00652
  
  S  C  22  -0.12131    -0.21484     0.28905    -0.04653     0.04061     0.02275
 PX  C  22   0.00417     0.00461     0.00359     0.00925    -0.03552     0.01080
 PY  C  22  -0.02150    -0.05313     0.03988     0.17531    -0.12618    -0.01089
 PZ  C  22  -0.10954     0.06786    -0.00970    -0.00482    -0.00867     0.00373
  
  S  C  23   0.11001     0.20155    -0.20067    -0.23258     0.10346     0.02151
 PX  C  23   0.03120     0.04177    -0.10218     0.09449    -0.09199    -0.00662
 PY  C  23  -0.02377    -0.04496     0.06854    -0.04768     0.02094     0.01476
 PZ  C  23   0.11127    -0.06478     0.00368     0.01241     0.00852    -0.00528
  
  S  C  24  -0.00456    -0.03330    -0.12188     0.31823    -0.25770    -0.01916
 PX  C  24  -0.06138    -0.09584     0.15203     0.03086    -0.02083     0.00208
 PY  C  24  -0.02080    -0.03894     0.06600     0.02983    -0.07437     0.00569
 PZ  C  24  -0.14935     0.09268     0.00417    -0.05234     0.01885     0.00898
  
  S  H  25  -0.02828    -0.04349     0.04804    -0.21879     0.25093    -0.00340
  
  S  H  26   0.07449     0.13617    -0.18560     0.02213     0.02196    -0.02668
  
  S  H  27  -0.06785    -0.11674     0.12142     0.13431    -0.01373    -0.02538
  
  S  H  28   0.00116     0.02191     0.08906    -0.21476     0.24157    -0.00077
  
  S  C  29   0.10039     0.14275    -0.25247    -0.23874    -0.01416     0.04298
 PX  C  29  -0.03524    -0.06946     0.08001    -0.10491     0.14428    -0.00544
 PY  C  29   0.01739    -0.00224    -0.10245     0.07747     0.12205    -0.06427
 PZ  C  29  -0.25367     0.16887    -0.03354    -0.02622    -0.01279     0.01465
  
  S  C  30  -0.09973    -0.12968     0.32753    -0.08968    -0.05833     0.05697
 PX  C  30  -0.01614     0.01706     0.06087     0.01931     0.17124    -0.04857
 PY  C  30   0.02244     0.06413    -0.04266    -0.19080     0.07233     0.02953
 PZ  C  30   0.26092    -0.16481     0.03218     0.01939     0.01141    -0.01065




    ROOT NO.   61          62          63          64          65          66

             5.26732     5.55102     5.61516     5.69347     6.18258     6.43879
  
  
  S  C   1  -0.09506    -0.29131    -0.06054     0.09078     0.05817     0.03016
 PX  C   1   0.11318     0.08780     0.10330    -0.14348    -0.11629    -0.05376
 PY  C   1   0.00581     0.30208    -0.00152    -0.01542    -0.02106    -0.01725
 PZ  C   1   0.01066     0.03109     0.00756    -0.01134    -0.00854    -0.00431
  
  S  C   2  -0.14539    -0.09135    -0.12288     0.16972     0.12696     0.05933
 PX  C   2  -0.08349    -0.17932    -0.05548     0.08015     0.05280     0.03057
 PY  C   2   0.02148     0.06854     0.05842    -0.09717    -0.16088    -0.10542
 PZ  C   2  -0.00648    -0.01281    -0.00400     0.00544     0.00355     0.00152
  
  S  C   3   0.05095     0.02045    -0.02151     0.04132     0.13640     0.09665
 PX  C   3  -0.14318     0.02210    -0.07214     0.07108    -0.08135    -0.10384
 PY  C   3  -0.04409    -0.06011    -0.06716     0.10677     0.15776     0.12181
 PZ  C   3   0.00788     0.00344     0.00490    -0.00484    -0.00074     0.00217
  
  S  C   4  -0.04252     0.02864     0.02084    -0.05069    -0.15175    -0.13380
 PX  C   4   0.09616    -0.01515     0.08559    -0.10873    -0.08432    -0.04483
 PY  C   4   0.10724     0.05105     0.01784    -0.00986     0.15698     0.14258
 PZ  C   4  -0.00211     0.00112     0.00112    -0.00317    -0.00457    -0.00303
  
  S  C   5   0.14231    -0.07273     0.12399    -0.15425    -0.11796    -0.06122
 PX  C   5   0.00763    -0.03754    -0.03510     0.06021     0.14522     0.12912
 PY  C   5   0.09147    -0.21673     0.10553    -0.13062    -0.15124    -0.10381
 PZ  C   5   0.00087    -0.00671     0.00028     0.00027    -0.00002    -0.00038
  
  S  C   6   0.09101    -0.30644     0.08134    -0.08818    -0.05316    -0.01686
 PX  C   6  -0.04955     0.30517    -0.06261     0.06754     0.05944     0.02485
 PY  C   6  -0.10226    -0.08830    -0.08846     0.11995     0.09644     0.05111
 PZ  C   6  -0.00297    -0.00095    -0.00253     0.00329     0.00301     0.00176
  
  S  C   7   0.21427    -0.04444     0.08828    -0.08160     0.10832     0.13017
 PX  C   7   0.06766    -0.03608    -0.00790     0.02059     0.11719     0.09549
 PY  C   7  -0.06191     0.01032    -0.07841     0.08503    -0.07362    -0.19703
 PZ  C   7  -0.02563     0.00201    -0.01314     0.01138    -0.01438    -0.02295
  
  S  C   8  -0.19180    -0.05456    -0.06634     0.06862    -0.10804    -0.11034
 PX  C   8   0.03178    -0.00511     0.06074    -0.10116     0.03291     0.14450
 PY  C   8  -0.08349    -0.04063    -0.03012     0.02931    -0.16421    -0.23420
 PZ  C   8   0.00108    -0.00023    -0.00031     0.00123    -0.00391    -0.00807
  
  S  C   9  -0.00625     0.02086    -0.07405     0.13788    -0.02299    -0.18375
 PX  C   9  -0.14018    -0.02594    -0.04788     0.04517    -0.08219    -0.07959
 PY  C   9  -0.10252     0.01655     0.06848    -0.08497    -0.04963     0.15411
 PZ  C   9  -0.00895    -0.00139     0.00649    -0.01324    -0.00250     0.01908
  
  S  C  10  -0.01920     0.02921     0.09717    -0.11193    -0.00889     0.14148
 PX  C  10   0.14872    -0.00043     0.00053     0.06714     0.08295    -0.09060
[...]
  S   H   18    0.0832    0.0358    0.0144   -0.0749   -0.0250    0.2951    0.0038   -0.0483
  S   H   19    0.1856    0.2599   -0.1867    0.1648    0.1625    0.0496   -0.0109    0.1158
  S   H   20   -0.1435    0.2490   -0.3186   -0.0207   -0.1156   -0.0151    0.0561   -0.1358
  S   C   21   -0.1037    0.0428    0.0050    0.0045   -0.0190    0.0008    0.0686   -0.0581
  Px  C   21   -0.1677    0.1246    0.1479   -0.0538    0.2794   -0.0007   -0.0642    0.1338
  Py  C   21    0.1473   -0.0953   -0.0590    0.0158   -0.1061    0.0018    0.2629   -0.1543
  Pz  C   21    0.0015   -0.0003    0.0031   -0.0006    0.0041   -0.0000    0.0025    0.0016
  S   C   22   -0.0291    0.0072   -0.0389    0.0098   -0.0459   -0.0001   -0.0912   -0.0043
  Px  C   22   -0.0363    0.0124   -0.0550    0.0095   -0.0636    0.0025    0.4702    0.0607
  Py  C   22   -0.1088    0.0487    0.0262   -0.0127    0.0557    0.0009   -0.0557   -0.1010
  Pz  C   22   -0.0008    0.0002    0.0011   -0.0005    0.0024   -0.0000   -0.0029   -0.0026
  S   C   23    0.0894   -0.0379   -0.0354    0.0097   -0.0477    0.0000    0.0919    0.0552
  Px  C   23    0.1111   -0.0460    0.0199   -0.0110    0.0365   -0.0012   -0.2502   -0.1310
  Py  C   23    0.0354   -0.0194   -0.0429    0.0084   -0.0509   -0.0004   -0.4428   -0.1813
  Pz  C   23   -0.0009    0.0003   -0.0031    0.0016   -0.0064    0.0001    0.0159    0.0089
  S   C   24    0.1213   -0.0562    0.0376   -0.0033    0.0205    0.0006   -0.0681   -0.0151
  Px  C   24   -0.0716    0.0359    0.0441   -0.0215    0.0917   -0.0010   -0.2035   -0.1382
  Py  C   24    0.1717   -0.1082    0.1834   -0.0578    0.3231   -0.0061    0.2472   -0.0139
  Pz  C   24   -0.0039   -0.0002    0.0061   -0.0029    0.0159   -0.0003    0.0188    0.0012
  S   H   25    0.2058   -0.1250   -0.0976    0.0266   -0.1590    0.0012    0.1540   -0.1102
  S   H   26    0.0498   -0.0192    0.0514   -0.0078    0.0500   -0.0016   -0.2909   -0.0430
  S   H   27   -0.1241    0.0553    0.0248   -0.0003    0.0153    0.0010    0.3290    0.1456
  S   H   28   -0.2092    0.1153   -0.1384    0.0366   -0.2132    0.0033   -0.1856   -0.0248
  S   C   29   -0.2016    0.1552    0.1022   -0.0574    0.2481   -0.0022    0.0183   -0.0008
  Px  C   29    0.0594   -0.0230    0.0119   -0.0274    0.1266    0.0005   -0.1155    0.2144
  Py  C   29   -0.1457    0.1200   -0.0438    0.0417   -0.1641   -0.0004   -0.0450    0.1739
  Pz  C   29   -0.0064    0.0063   -0.0033   -0.0023    0.0046    0.0000   -0.0022    0.0094
  S   C   30    0.1446   -0.0950    0.1298   -0.0617    0.2887   -0.0016   -0.0060   -0.0324
  Px  C   30    0.1020   -0.1113   -0.0199    0.0248   -0.0675   -0.0023    0.0849   -0.1212
  Py  C   30   -0.1758    0.1352    0.0047   -0.0434    0.1519   -0.0064    0.0716   -0.0405
  Pz  C   30   -0.0025    0.0021    0.0080   -0.0020    0.0124   -0.0005    0.0091   -0.0069


   Root No.      73        74        75        76        77        78        79        80

                73 ????   74 ????   25 a      25 b      77 ????   78 ????   26 a      80 ????

                 9.371     9.576    10.232    10.605    11.077    11.663    11.877    12.230
  
  S   C    1   -0.0588   -0.0586    0.0610   -0.0721    0.0400    0.0132    0.0088   -0.0106
  Px  C    1   -0.1543   -0.1990   -0.0490   -0.2060   -0.1108    0.0475   -0.2106   -0.2550
  Py  C    1   -0.1044   -0.0408    0.2465   -0.0574    0.1911    0.0002    0.1655    0.1488
  Pz  C    1   -0.0067   -0.0065    0.0034   -0.0068    0.0004    0.0020   -0.0037   -0.0054
  S   C    2    0.0576    0.0820    0.0708    0.0384    0.0783    0.0218    0.0455    0.0326
  Px  C    2   -0.1663   -0.2058    0.0310   -0.2412   -0.0201    0.0860   -0.1718   -0.2464
  Py  C    2    0.1653    0.2206    0.2430   -0.0345    0.2117    0.1353   -0.0021   -0.0752
  Pz  C    2   -0.0049   -0.0064   -0.0027   -0.0041   -0.0033   -0.0001   -0.0037   -0.0037
  S   C    3    0.0228    0.0407    0.0108    0.0550    0.0232   -0.0046    0.0219    0.0202
  Px  C    3    0.0897    0.1955    0.2721   -0.0114   -0.0499   -0.2757    0.0165   -0.0076
  Py  C    3    0.0524    0.0548    0.1898   -0.1186    0.3135    0.3658   -0.0745   -0.1818
  Pz  C    3   -0.0009   -0.0024   -0.0027   -0.0014   -0.0002    0.0028    0.0003   -0.0001
  S   C    4    0.0179    0.0526    0.0004    0.0645   -0.0234   -0.0019   -0.0254   -0.0182
  Px  C    4    0.1741    0.0777   -0.2659   -0.0828   -0.2273   -0.1492    0.0275    0.0654
  Py  C    4    0.1387    0.0912   -0.1147   -0.0293    0.2076    0.4263   -0.0691   -0.1337
  Pz  C    4    0.0056    0.0048   -0.0060    0.0009    0.0007    0.0078   -0.0020   -0.0033
  S   C    5    0.0844    0.0848   -0.0822    0.0420   -0.0840   -0.0251   -0.0452   -0.0327
  Px  C    5    0.1080    0.0135   -0.1836   -0.1323   -0.1434   -0.1258    0.0652    0.0935
  Py  C    5   -0.2446   -0.2887    0.1128   -0.1972    0.1254    0.0026    0.1331    0.1226
  Pz  C    5   -0.0090   -0.0100    0.0056   -0.0066    0.0058    0.0003    0.0052    0.0048
  S   C    6   -0.0392   -0.0791   -0.0553   -0.0732   -0.0398   -0.0061   -0.0194   -0.0197
  Px  C    6   -0.1186   -0.2396   -0.1607   -0.1757   -0.0948   -0.0065   -0.0478   -0.0501
  Py  C    6   -0.1174   -0.1290    0.1813   -0.1421    0.1964   -0.0263    0.2481    0.2408
  Pz  C    6   -0.0058   -0.0112   -0.0049   -0.0092   -0.0023   -0.0014    0.0013    0.0013
  S   C    7   -0.0310   -0.0550   -0.0829    0.0590    0.0589    0.0683    0.0637    0.0235
  Px  C    7    0.0847    0.1741    0.1916    0.0408   -0.0154   -0.2264    0.0791    0.0240
  Py  C    7   -0.1137   -0.1232   -0.1464    0.2063    0.1389    0.0504    0.2038    0.0465
  Pz  C    7   -0.0076   -0.0110   -0.0131    0.0060    0.0057    0.0107    0.0042    0.0010
  S   C    8   -0.0938   -0.0100    0.0619    0.0903   -0.0455   -0.0514   -0.0518   -0.0056
  Px  C    8   -0.1410    0.0839   -0.0224    0.2282   -0.0630    0.1308   -0.2086   -0.0915
  Py  C    8    0.2848    0.1097   -0.1781   -0.1288    0.0784    0.2155    0.0107   -0.0643
  Pz  C    8    0.0097    0.0058   -0.0083   -0.0028    0.0020    0.0108   -0.0024   -0.0035
  S   C    9    0.0028   -0.0316    0.0432   -0.0049   -0.0145   -0.0315   -0.0198   -0.0015
  Px  C    9   -0.2164    0.0747    0.0367    0.2838   -0.1302    0.0671   -0.2470   -0.0913
  Py  C    9   -0.1007    0.0191   -0.1135    0.1000   -0.1090    0.0985    0.3846   -0.0020
  Pz  C    9   -0.0017    0.0023   -0.0074    0.0007   -0.0024    0.0042    0.0207    0.0012
  S   C   10    0.0110   -0.0242   -0.0357   -0.0153   -0.0012    0.0227    0.0182    0.0229
  Px  C   10   -0.0622   -0.1095    0.0401    0.2490    0.2046   -0.0676   -0.1829    0.0506
  Py  C   10   -0.0314   -0.0022   -0.1202    0.1108    0.0886    0.0302    0.4213    0.0557
  Pz  C   10   -0.0003   -0.0044   -0.0074    0.0071    0.0057    0.0014    0.0154    0.0056
  S   C   11    0.0433    0.0026   -0.0584   -0.0863   -0.0338    0.0477    0.0272    0.0493
  Px  C   11   -0.0399   -0.1017   -0.0116    0.1991    0.1604   -0.0198   -0.1563    0.1035
  Py  C   11    0.1499   -0.0685   -0.1571   -0.1119    0.0149    0.0886   -0.0146    0.1986
  Pz  C   11   -0.0049   -0.0057    0.0030    0.0134    0.0108   -0.0038   -0.0092    0.0028
  S   H   12    0.0843   -0.0079   -0.0792   -0.0981   -0.0340    0.0558    0.0403    0.0723
  S   C   13    0.0828   -0.0520    0.0752   -0.0753    0.0121   -0.0681   -0.0363   -0.0227
  Px  C   13    0.1156   -0.1407    0.1595    0.0270   -0.1184   -0.0744    0.0872   -0.1488
  Py  C   13   -0.2313    0.0967   -0.1113    0.2083   -0.0910    0.1058    0.1376    0.0021
  Pz  C   13   -0.0006   -0.0013    0.0027    0.0014   -0.0011   -0.0023    0.0014   -0.0022
  S   H   14   -0.0825   -0.1123   -0.1257    0.0804    0.0749    0.0941    0.0791    0.0118
  S   H   15   -0.0972   -0.0748    0.1195   -0.0896    0.0710    0.0177    0.0240    0.0027
  S   H   16    0.1344    0.1729    0.1193    0.0453    0.1205    0.0531    0.0472    0.0285
  S   H   17    0.1493    0.1433   -0.1079    0.0593   -0.1088   -0.0468   -0.0468   -0.0307
  S   H   18   -0.0730   -0.1478   -0.0933   -0.1075   -0.0540   -0.0066   -0.0238   -0.0253
  S   H   19   -0.1854   -0.0377    0.0847    0.1126   -0.0584   -0.0836   -0.0609    0.0105
  S   H   20    0.1451   -0.0901    0.1025   -0.0790    0.0129   -0.0767   -0.0460   -0.0526
  S   C   21   -0.0768    0.0806    0.0449   -0.0309   -0.0881    0.0708    0.0196    0.0232
  Px  C   21    0.0606   -0.0007   -0.1257   -0.1694    0.0899   -0.0869    0.1186   -0.1933
  Py  C   21   -0.2592    0.2921    0.0494   -0.1861   -0.1618    0.1229    0.0982   -0.0376
  Pz  C   21   -0.0011    0.0026   -0.0026   -0.0053    0.0011   -0.0013    0.0033   -0.0049
  S   C   22    0.0552   -0.0750    0.0474    0.0745   -0.0442    0.0361    0.0092    0.0003
  Px  C   22   -0.1738    0.2263   -0.1469   -0.1863    0.1122   -0.0808   -0.0204    0.0041
  Py  C   22   -0.0979    0.1279    0.1110   -0.1374   -0.2694    0.2038    0.2101   -0.1374
  Pz  C   22   -0.0015    0.0022    0.0025   -0.0029   -0.0050    0.0038    0.0027   -0.0007
  S   C   23    0.0389   -0.0503   -0.0294    0.0586    0.0392   -0.0128   -0.0027   -0.0175
  Px  C   23   -0.1470    0.1945   -0.0630   -0.2024    0.1673   -0.1862   -0.1804    0.1652
  Py  C   23   -0.0470    0.0481    0.1672   -0.0503   -0.2474    0.1706    0.1318   -0.0632
  Pz  C   23    0.0093   -0.0120    0.0013    0.0117   -0.0050    0.0066    0.0081   -0.0091
  S   C   24   -0.0638    0.0730   -0.0628   -0.0306    0.0954   -0.0734   -0.0235   -0.0213
  Px  C   24   -0.1411    0.1918   -0.0130   -0.2260    0.0750   -0.1195   -0.1674    0.2098
  Py  C   24    0.2002   -0.1828    0.1805   -0.0436   -0.2029    0.1205   -0.0481    0.1835
  Pz  C   24    0.0166   -0.0169    0.0161    0.0019   -0.0214    0.0149    0.0013    0.0101
  S   H   25   -0.1488    0.1514    0.0537   -0.0562   -0.1048    0.0852    0.0217    0.0309
  S   H   26    0.1002   -0.1318    0.0894    0.1070   -0.0703    0.0517    0.0141   -0.0019
  S   H   27    0.0738   -0.0922   -0.0692    0.0971    0.0760   -0.0299   -0.0084   -0.0236
  S   H   28   -0.1404    0.1410   -0.0967   -0.0290    0.1233   -0.0933   -0.0156   -0.0454
  S   C   29   -0.0203    0.0451   -0.0003   -0.0620   -0.0314    0.0204    0.0117    0.0012
  Px  C   29    0.1350   -0.0808   -0.1858   -0.1200    0.1863   -0.1500    0.0943   -0.1947
  Py  C   29    0.0619   -0.0585   -0.1162   -0.0093   -0.0347    0.2254   -0.1294    0.4143
  Pz  C   29    0.0043   -0.0019   -0.0060   -0.0037    0.0003    0.0045    0.0002    0.0067
  S   C   30   -0.0054    0.0296   -0.0032   -0.0623    0.0322   -0.0384   -0.0141   -0.0049
  Px  C   30    0.1561   -0.1614    0.2302   -0.0434   -0.1103   -0.1366    0.0429   -0.1563
  Py  C   30    0.0585   -0.0228    0.1066   -0.1067   -0.1932    0.2076   -0.1590    0.4255
  Pz  C   30    0.0095   -0.0075    0.0138   -0.0086   -0.0137    0.0055   -0.0078    0.0192


   Root No.      81        82        83        84

                27 a      28 a      26 b      27 b   

                12.596    12.796    13.203    14.546
  
  S   C    1   -0.0619   -0.0186    0.0096    0.0366
  Px  C    1   -0.2001    0.1319    0.2122    0.0892
  Py  C    1   -0.0160   -0.1391   -0.1249    0.0263
  Pz  C    1   -0.0055    0.0023    0.0044    0.0025
  S   C    2    0.0016   -0.0214   -0.0188    0.0210
  Px  C    2   -0.2477    0.1106    0.2108    0.1314
  Py  C    2   -0.1346    0.0107    0.0584    0.1098
  Pz  C    2   -0.0028    0.0016    0.0029    0.0009
  S   C    3    0.0106    0.0004    0.0141    0.0233
  Px  C    3   -0.2717   -0.0387    0.2537    0.2222
  Py  C    3   -0.1049    0.0832    0.0288    0.0865
  Pz  C    3    0.0027    0.0006   -0.0037   -0.0029
  S   C    4    0.0110    0.0123   -0.0015    0.0239
  Px  C    4   -0.2412   -0.2490   -0.1508    0.2173
  Py  C    4   -0.0688   -0.0307   -0.1941    0.1192
  Pz  C    4   -0.0041   -0.0023   -0.0058    0.0059
  S   C    5   -0.0213    0.0087    0.0171    0.0274
  Px  C    5   -0.2278   -0.2580   -0.1560    0.1800
  Py  C    5   -0.0894   -0.1792   -0.1464    0.0610
  Pz  C    5   -0.0025   -0.0063   -0.0051    0.0018
  S   C    6   -0.0655   -0.0293   -0.0060    0.0387
  Px  C    6   -0.1344   -0.0499   -0.0035    0.0737
  Py  C    6   -0.0760   -0.2778   -0.2433    0.0722
  Pz  C    6   -0.0066   -0.0059   -0.0033    0.0038
  S   C    7    0.0472    0.0396    0.0017    0.0143
  Px  C    7   -0.2350   -0.0079    0.2583    0.2345
  Py  C    7   -0.0342    0.1084    0.1432    0.1574
  Pz  C    7    0.0063    0.0037   -0.0036   -0.0012
  S   C    8    0.0576    0.0092   -0.0005    0.0147
  Px  C    8   -0.0299   -0.1534   -0.2397    0.2550
  Py  C    8   -0.1482   -0.0730   -0.1384    0.1187
  Pz  C    8   -0.0062   -0.0050   -0.0090    0.0067
  S   C    9    0.0547    0.0291   -0.0058    0.0028
  Px  C    9    0.0331   -0.1196   -0.2384    0.2646
  Py  C    9   -0.0831    0.3089   -0.0655    0.1627
  Pz  C    9   -0.0073    0.0126    0.0010    0.0031
  S   C   10    0.0579    0.0122   -0.0009    0.0029
  Px  C   10    0.0849   -0.1753    0.2024    0.2556
  Py  C   10   -0.1542    0.2400    0.1820    0.1627
  Pz  C   10    0.0006    0.0079    0.0107    0.0109
  S   C   11    0.0489    0.0227    0.0112   -0.0067
  Px  C   11    0.1504   -0.1604    0.2148    0.2646
  Py  C   11    0.1587   -0.0124    0.1625    0.1411
  Pz  C   11    0.0057   -0.0085    0.0102    0.0123
  S   H   12    0.0274    0.0379    0.0244    0.0008
  S   C   13    0.0654    0.0143   -0.0159   -0.0064
  Px  C   13    0.1488    0.2281   -0.2427    0.2784
  Py  C   13   -0.0687    0.1281   -0.0854    0.1600
  Pz  C   13    0.0028    0.0054   -0.0042    0.0062
  S   H   14    0.0385    0.0553   -0.0039    0.0077
  S   H   15   -0.0623   -0.0322   -0.0048    0.0350
  S   H   16    0.0031   -0.0219   -0.0299    0.0141
  S   H   17   -0.0159    0.0160    0.0307    0.0147
  S   H   18   -0.0772   -0.0304   -0.0024    0.0393
  S   H   19    0.0574   -0.0118    0.0096    0.0018
  S   H   20    0.0695   -0.0039   -0.0307    0.0043
  S   C   21   -0.0119   -0.0193    0.0166   -0.0286
  Px  C   21    0.3351   -0.1151    0.0904    0.1823
  Py  C   21    0.1641   -0.1150    0.1013    0.0512
  Pz  C   21    0.0090   -0.0037    0.0028    0.0045
  S   C   22   -0.0612   -0.0117   -0.0041   -0.0399
  Px  C   22    0.1318    0.0279    0.0086    0.0823
  Py  C   22    0.2389   -0.2259    0.1648    0.0656
  Pz  C   22    0.0040   -0.0028    0.0026    0.0015
  S   C   23   -0.0460   -0.0230    0.0052   -0.0364
  Px  C   23    0.0368    0.2696   -0.1426    0.1061
  Py  C   23    0.1104   -0.1274    0.0897    0.0256
  Pz  C   23   -0.0023   -0.0125    0.0061   -0.0048
  S   C   24   -0.0195    0.0095   -0.0155   -0.0288
  Px  C   24    0.0747    0.2870   -0.1358    0.1494
  Py  C   24    0.0897    0.1229   -0.0214    0.1318
  Pz  C   24    0.0060    0.0035    0.0012    0.0085
  S   H   25    0.0077   -0.0288    0.0310   -0.0120
  S   H   26   -0.0680   -0.0206    0.0005   -0.0407
  S   H   27   -0.0676   -0.0196   -0.0023   -0.0425
  S   H   28   -0.0233    0.0099   -0.0248   -0.0229
  S   C   29    0.0081    0.0029   -0.0097   -0.0280
  Px  C   29    0.3301   -0.0942    0.0857    0.2170
  Py  C   29    0.0714   -0.0268    0.2311    0.1296
  Pz  C   29    0.0067   -0.0022    0.0072    0.0058
  S   C   30    0.0111   -0.0021    0.0064   -0.0292
  Px  C   30    0.1885    0.2306   -0.2445    0.2483
  Py  C   30    0.0265    0.1553    0.0434    0.1125
  Pz  C   30    0.0084    0.0189   -0.0069    0.0152


              NET ATOMIC CHARGES AND DIPOLE CONTRIBUTIONS

  ATOM NO.   TYPE          CHARGE      No. of ELECS.   s-Pop       p-Pop       
    1          C          -0.027355        4.0274     1.09055     2.93681
    2          C          -0.036883        4.0369     1.10364     2.93324
    3          C           0.002824        3.9972     1.08584     2.91133
    4          C           0.007671        3.9923     1.07709     2.91524
    5          C          -0.022061        4.0221     1.09005     2.93201
    6          C          -0.019394        4.0194     1.08484     2.93455
    7          C          -0.031264        4.0313     1.08764     2.94362
    8          C          -0.035674        4.0357     1.10618     2.92950
    9          C           0.011281        3.9887     1.06208     2.92664
   10          C           0.010801        3.9892     1.06272     2.92647
   11          C          -0.042385        4.0424     1.11028     2.93210
   12          H           0.016965        0.9830     0.98303
   13          C          -0.040325        4.0403     1.09600     2.94432
   14          H           0.035760        0.9642     0.96424
   15          H           0.021857        0.9781     0.97814
   16          H           0.026993        0.9730     0.97301
   17          H           0.022164        0.9778     0.97784
   18          H           0.026033        0.9740     0.97397
   19          H           0.025804        0.9742     0.97420
   20          H           0.017132        0.9829     0.98287
   21          C          -0.026560        4.0266     1.10190     2.92466
   22          C          -0.030971        4.0310     1.09549     2.93549
   23          C          -0.027536        4.0275     1.09454     2.93299
   24          C          -0.036248        4.0362     1.09903     2.93721
   25          H           0.028603        0.9714     0.97140
   26          H           0.029238        0.9708     0.97076
   27          H           0.022645        0.9774     0.97735
   28          H           0.031167        0.9688     0.96883
   29          C           0.015871        3.9841     1.05522     2.92891
   30          C           0.023846        3.9762     1.05053     2.92563
 DIPOLE           X         Y         Z       TOTAL
 POINT-CHG.     0.065    -0.039    -0.021     0.079
 HYBRID         0.032    -0.126    -0.071     0.148
 SUM            0.097    -0.165    -0.092     0.212


          ATOMIC ORBITAL ELECTRON POPULATIONS

     Atom    s        px        py        pz   
    1  C   1.09055   0.98758   0.94767   1.00156
    2  C   1.10364   0.97898   0.95266   1.00160
    3  C   1.08584   0.96663   0.96352   0.98119
    4  C   1.07709   0.96141   0.96453   0.98931
    5  C   1.09005   0.96976   0.95247   1.00978
    6  C   1.08484   0.94697   0.98790   0.99968
    7  C   1.08764   0.97020   0.95624   1.01718
    8  C   1.10618   0.97323   0.94535   1.01091
    9  C   1.06208   0.97274   0.97481   0.97908
   10  C   1.06272   0.97791   0.97295   0.97561
   11  C   1.11028   0.97097   0.94783   1.01330
   12  H   0.98303
   13  C   1.09600   0.95942   0.95704   1.02786
   14  H   0.96424
   15  H   0.97814
   16  H   0.97301
   17  H   0.97784
   18  H   0.97397
   19  H   0.97420
   20  H   0.98287
   21  C   1.10190   0.98320   0.94561   0.99584
   22  C   1.09549   0.94244   0.98545   1.00759
   23  C   1.09454   0.98312   0.95563   0.99424
   24  C   1.09903   0.98114   0.94603   1.01004
   25  H   0.97140
   26  H   0.97076
   27  H   0.97735
   28  H   0.96883
   29  C   1.05522   0.97113   0.97254   0.98524
   30  C   1.05053   0.97312   0.96978   0.98273

 **********************
 *                    *
 * JOB ENDED NORMALLY *
 *                    *
 **********************



 TOTAL JOB TIME:             5.60 SECONDS

 == MOPAC DONE ==


          MOPAC Job: "./tetraceneTraj/tetracene_348.mop" ended normally on Feb 15, 2023, at 11:23.

rm: cannot remove ./tetraceneTraj/tetracene_348.cim: No such file or directory
rm: cannot remove ./tetraceneTraj/tetracene_348.end: No such file or directory
rm: cannot remove ./tetraceneTraj/tetracene_348.log: No such file or directory
rm: cannot remove ./tetraceneTraj/tetracene_348.temp: No such file or directory
rm: cannot remove ./tetraceneTraj/tetracene_348.ple: No such file or directory
rm: cannot remove ./tetraceneTraj/tetracene_348.sts: No such file or directory
