 *******************************************************************************
 ** Site#:    0         For non-commercial use only    Version 20.173L 64BITS **
 *******************************************************************************
 ** Cite this program as: MOPAC2016, Version: 20.173L, James J. P. Stewart,   **
 ** Stewart Computational Chemistry, web-site: HTTP://OpenMOPAC.net.          **
 *******************************************************************************
 **                                                                           **
 **                                MOPAC2016                                  **
 **                                                                           **
 *******************************************************************************

                              INDO CALCULATION RESULTS

 *******************************************************************************
 *  CALCULATION DONE:                                Wed Feb 15 11:27:20 2023  *
 *  INDO       - The INDO Hamiltonian to be used
 *
 *
 *
 *                 CHARGE ON SYSTEM = 0
 *
 *
 *
 *  C.I.=(N,M) - 3 DOUBLY FILLED LEVELS USED IN A C.I. INVOLVING 6 M.O.'S
 *  T=         - A TIME OF 172800.0 SECONDS REQUESTED
 *  DUMP=N     - RESTART FILE WRITTEN EVERY 7200.0 SECONDS REQUESTED
 *  RELSCF     - DEFAULT SCF CRITERION MULTIPLIED BY 0.0000
 *              (DEFAULT SCF CRITERION = 0.00010)
 *  ALLVEC     - PRINT ALL EIGENVECTORS
 **********
 *  WARNING: Specified print options may not behave as expected with INDO
 **********
 *******************************************************************************
INDO C.I.=(6,3) AllVEC CHARGE=0 RELSCF=0.000001


   ATOM   CHEMICAL          X               Y               Z
  NUMBER   SYMBOL      (ANGSTROMS)     (ANGSTROMS)     (ANGSTROMS)
 
     1       C         18.48244577  *  19.50639044  *  22.26984622  *
     2       C         19.86825269  *  19.44775281  *  22.34178599  *
     3       C         20.68283908  *  20.66280314  *  22.42009808  *
     4       C         19.93563521  *  21.94795333  *  22.39408145  *
     5       C         18.46891125  *  21.97750898  *  22.47910980  *
     6       C         17.74998333  *  20.77740162  *  22.38082440  *
     7       C         22.11419915  *  20.64153502  *  22.43978727  *
     8       C         20.75179187  *  23.15117556  *  22.43112235  *
     9       C         22.16953261  *  23.08952646  *  22.47205516  *
    10       C         22.90692217  *  21.80430940  *  22.47961441  *
    11       C         24.33168896  *  21.81745796  *  22.60777361  *
    12       H         24.89490861  *  20.86173880  *  22.42740645  *
    13       C         22.93125992  *  24.30779337  *  22.56505475  *
    14       H         22.63218360  *  19.65415019  *  22.56256470  *
    15       H         17.80289997  *  18.62764010  *  22.11534196  *
    16       H         20.38176848  *  18.47685259  *  22.26942697  *
    17       H         17.99922272  *  22.96148721  *  22.58957870  *
    18       H         16.69175027  *  20.77741533  *  22.29722283  *
    19       H         20.29024474  *  24.11646243  *  22.31116926  *
    20       H         22.35871253  *  25.28968562  *  22.59776704  *
    21       C         26.53555636  *  23.05363348  *  22.63816435  *
    22       C         27.15722537  *  24.26439384  *  22.50215417  *
    23       C         26.43789338  *  25.55008758  *  22.53345953  *
    24       C         25.07839242  *  25.60131711  *  22.70272743  *
    25       H         27.18532637  *  22.16383255  *  22.71389075  *
    26       H         28.25877182  *  24.37306572  *  22.36939927  *
    27       H         27.00336623  *  26.52089644  *  22.51099954  *
    28       H         24.52509987  *  26.55129661  *  22.76533429  *
    29       C         25.07581424  *  23.02754086  *  22.69151906  *
    30       C         24.31961903  *  24.33996172  *  22.69028682  *
 


          CARTESIAN COORDINATES 

    NO.       ATOM           X           Y           Z

     1         C         18.4824     19.5064     22.2698
     2         C         19.8683     19.4478     22.3418
     3         C         20.6828     20.6628     22.4201
     4         C         19.9356     21.9480     22.3941
     5         C         18.4689     21.9775     22.4791
     6         C         17.7500     20.7774     22.3808
     7         C         22.1142     20.6415     22.4398
     8         C         20.7518     23.1512     22.4311
     9         C         22.1695     23.0895     22.4721
    10         C         22.9069     21.8043     22.4796
    11         C         24.3317     21.8175     22.6078
    12         H         24.8949     20.8617     22.4274
    13         C         22.9313     24.3078     22.5651
    14         H         22.6322     19.6542     22.5626
    15         H         17.8029     18.6276     22.1153
    16         H         20.3818     18.4769     22.2694
    17         H         17.9992     22.9615     22.5896
    18         H         16.6918     20.7774     22.2972
    19         H         20.2902     24.1165     22.3112
    20         H         22.3587     25.2897     22.5978
    21         C         26.5356     23.0536     22.6382
    22         C         27.1572     24.2644     22.5022
    23         C         26.4379     25.5501     22.5335
    24         C         25.0784     25.6013     22.7027
    25         H         27.1853     22.1638     22.7139
    26         H         28.2588     24.3731     22.3694
    27         H         27.0034     26.5209     22.5110
    28         H         24.5251     26.5513     22.7653
    29         C         25.0758     23.0275     22.6915
    30         C         24.3196     24.3400     22.6903

           Empirical Formula: C18 H12  =    30 atoms



      MOLECULAR POINT GROUP   :   C1  


      RHF CALCULATION, NO. OF DOUBLY OCCUPIED LEVELS = 42

 WARNING: INDO only performs single-point calculations
  SCF CRITERION =    0.1000E-09

 Summary of symmetry occupancy in each shell:

 SHELL     
    1   42
    v   42
 TOTAL  84




    ROOT NO.    1           2           3           4           5           6

           -44.15344   -42.47889   -40.15500   -36.60095   -35.51072   -33.93456
  
  
  S  C   1   0.11005     0.21836    -0.27319     0.24210     0.06452    -0.11728
 PX  C   1   0.02899     0.04941    -0.04363     0.00097     0.04143    -0.08821
 PY  C   1   0.03892     0.07386    -0.08489     0.06247    -0.01584     0.04318
 PZ  C   1   0.00429     0.00818    -0.00943     0.00655     0.00048    -0.00012
  
  S  C   2   0.14043     0.23886    -0.22734     0.09459     0.15877    -0.28658
 PX  C   2  -0.00239    -0.02719     0.07150    -0.10861     0.03044    -0.03691
 PY  C   2   0.05543     0.08595    -0.06481    -0.00068     0.01405    -0.01611
 PZ  C   2   0.00106     0.00080     0.00121    -0.00388    -0.00011     0.00191
  
  S  C   3   0.25471     0.30029    -0.08374    -0.19039     0.14771    -0.21218
 PX  C   3   0.00798    -0.05200     0.13805    -0.13246     0.06327    -0.05006
 PY  C   3   0.05319     0.02919     0.05675    -0.09310    -0.08491     0.13289
 PZ  C   3  -0.00138    -0.00424     0.00603    -0.00300    -0.00154     0.00543
  
  S  C   4   0.24905     0.29898    -0.09635    -0.15726    -0.16095     0.20740
 PX  C   4   0.05001    -0.00073     0.12130    -0.16155     0.01901    -0.07040
 PY  C   4  -0.02405    -0.06059     0.08255    -0.04965    -0.10482     0.12306
 PZ  C   4   0.00491     0.00511    -0.00033    -0.00418    -0.00474     0.00755
  
  S  C   5   0.13553     0.23328    -0.23031     0.12715    -0.14655     0.27640
 PX  C   5   0.04272     0.05443    -0.01554    -0.05395    -0.03425     0.03132
 PY  C   5  -0.03280    -0.07061     0.09592    -0.08969    -0.02504     0.02135
 PZ  C   5  -0.00429    -0.00838     0.00995    -0.00753     0.00188    -0.00398
  
  S  C   6   0.10818     0.21622    -0.27458     0.25685    -0.04280     0.12065
 PX  C   6   0.04745     0.08760    -0.09474     0.05507    -0.00333     0.00612
 PY  C   6   0.00321     0.00247     0.00521    -0.01934    -0.04328     0.09014
 PZ  C   6  -0.00040    -0.00124     0.00249    -0.00401    -0.00227     0.00453
  
  S  C   7   0.23818     0.15180     0.14385    -0.24405     0.28130    -0.20563
 PX  C   7  -0.02419    -0.06788     0.04501     0.08153     0.03338     0.06067
 PY  C   7   0.08236     0.02541     0.08500    -0.06086     0.00557     0.03983
 PZ  C   7   0.00340    -0.00024     0.00484    -0.00078     0.00659    -0.00132
  
  S  C   8   0.23663     0.15066     0.13758    -0.21577    -0.30941     0.22304
 PX  C   8   0.05438    -0.01619     0.09404    -0.00708    -0.02431    -0.05743
 PY  C   8  -0.06346    -0.07048    -0.00748     0.10090    -0.02317    -0.02636
 PZ  C   8   0.00051    -0.00166     0.00158     0.00355     0.00212    -0.00386
  
  S  C   9   0.33998     0.03116     0.29406     0.00082    -0.21882     0.04625
 PX  C   9   0.02861    -0.08319     0.02661     0.18922     0.08507    -0.07229
 PY  C   9  -0.04491    -0.05054    -0.03594     0.10900    -0.14190    -0.00678
 PZ  C   9   0.00485    -0.00482     0.00413     0.01315    -0.00159    -0.00402
  
  S  C  10   0.33462     0.02670     0.29347    -0.00383     0.23671    -0.02701
 PX  C  10  -0.02817    -0.08618    -0.02239     0.19027     0.07742     0.04512
 PY  C  10   0.05198    -0.04209     0.04163     0.10968    -0.11922     0.04939
 PZ  C  10   0.00496    -0.00443     0.00454     0.01227     0.00550     0.00130
  
  S  C  11   0.24209    -0.11777     0.14770     0.22693     0.32395     0.14154
 PX  C  11  -0.05155    -0.02733    -0.09153    -0.00914    -0.01250     0.07863
 PY  C  11   0.07074    -0.06457     0.01345     0.10280    -0.00563     0.04116
 PZ  C  11  -0.00631     0.00039    -0.00679    -0.00191    -0.01127    -0.00015
  
  S  H  12   0.07200    -0.03485     0.04059     0.05847     0.15708     0.07029
  
  S  C  13   0.25302    -0.12148     0.15065     0.24226    -0.31072    -0.14420
 PX  C  13   0.03403    -0.07407    -0.03889     0.08664     0.02403    -0.09132
 PY  C  13  -0.07998     0.00786    -0.08629    -0.05958    -0.00755    -0.05380
 PZ  C  13   0.00120    -0.00421    -0.00257     0.00700    -0.00141    -0.00913
  
  S  H  14   0.07121     0.04460     0.04027    -0.06713     0.14302    -0.10264
  
  S  H  15   0.02755     0.05833    -0.08120     0.08848     0.02403    -0.04578
  
  S  H  16   0.04261     0.06994    -0.06236     0.01876     0.07988    -0.14195
  
  S  H  17   0.04168     0.06849    -0.06280     0.03078    -0.07786     0.13926
  
  S  H  18   0.02934     0.06225    -0.08726     0.09877    -0.01919     0.05641
  
  S  H  19   0.07586     0.04498     0.04287    -0.05563    -0.16210     0.11089
  
  S  H  20   0.07603    -0.03453     0.04222     0.06297    -0.16059    -0.06815
  
  S  C  21   0.15995    -0.23957    -0.21129    -0.11872     0.19659     0.30180
 PX  C  21  -0.04950     0.05420     0.01214    -0.05513    -0.03728    -0.01914
 PY  C  21   0.04021    -0.07500    -0.09145    -0.09155    -0.02104    -0.00454
 PZ  C  21  -0.00228     0.00360     0.00402     0.00514    -0.00135    -0.00321
  
  S  C  22   0.13363    -0.23048    -0.25912    -0.24981     0.07082     0.14837
 PX  C  22  -0.05741     0.09126     0.08715     0.05210    -0.00531    -0.00555
 PY  C  22  -0.00654     0.00664    -0.00160    -0.01934    -0.06389    -0.10997
 PZ  C  22   0.00577    -0.00980    -0.01034    -0.00751     0.00281     0.00535
  
  S  C  23   0.13202    -0.22744    -0.25531    -0.24258    -0.08411    -0.13193
 PX  C  23  -0.03479     0.05200     0.04280     0.00770     0.05705     0.09839
 PY  C  23  -0.04658     0.07634     0.07768     0.05834    -0.02465    -0.05165
 PZ  C  23   0.00503    -0.00858    -0.00917    -0.00681    -0.00518    -0.00919
  
  S  C  24   0.16149    -0.23998    -0.20882    -0.10474    -0.20358    -0.30026
 PX  C  24   0.00783    -0.03534    -0.07192    -0.10920     0.03484     0.02704
 PY  C  24  -0.06266     0.08424     0.05657    -0.00174     0.01875     0.01660
 PZ  C  24  -0.00628     0.00976     0.00947     0.00740     0.00523     0.00796
  
  S  H  25   0.04577    -0.06793    -0.05951    -0.03483     0.09339     0.14203
  
  S  H  26   0.03409    -0.06272    -0.07839    -0.09240     0.02761     0.06223
  
  S  H  27   0.03313    -0.06066    -0.07528    -0.08656    -0.03551    -0.05957
  
  S  H  28   0.04872    -0.06938    -0.05629    -0.02196    -0.10145    -0.14559
  
  S  C  29   0.27513    -0.27900    -0.06346     0.17216     0.19824     0.19279
 PX  C  29  -0.04728    -0.01628    -0.12198    -0.15906     0.03597     0.09290
 PY  C  29   0.02764    -0.06286    -0.08047    -0.05838    -0.11641    -0.09762
 PZ  C  29  -0.01024     0.00884    -0.00040    -0.00692    -0.00941    -0.00813
  
  S  C  30   0.28001    -0.28183    -0.06143     0.18535    -0.18108    -0.20829
 PX  C  30  -0.00386    -0.06011    -0.13159    -0.13543     0.07790     0.04406
 PY  C  30  -0.05304     0.01612    -0.06446    -0.10127    -0.10350    -0.12819
 PZ  C  30  -0.00976     0.00760    -0.00205    -0.00861     0.00607     0.00470




    ROOT NO.    7           8           9          10          11          12

           -31.87870   -31.14531   -28.75555   -28.08887   -26.71672   -25.93037
  
  
  S  C   1   0.13390     0.29122     0.15541    -0.25677     0.03664     0.21516
 PX  C   1   0.12737    -0.08035     0.12413     0.15052    -0.04038     0.07333
 PY  C   1  -0.07190     0.01382    -0.08461     0.02167     0.06184    -0.10467
 PZ  C   1  -0.00089    -0.00001    -0.00206     0.00700     0.00317    -0.00611
  
  S  C   2   0.31179    -0.00601     0.18770     0.10525    -0.12288     0.03561
 PX  C   2  -0.00364    -0.13859    -0.11499     0.11159    -0.07237    -0.21432
 PY  C   2   0.00076    -0.08131    -0.04721     0.09150     0.08391    -0.09831
 PZ  C   2  -0.00538    -0.00871    -0.01053     0.00871     0.00210    -0.01508
  
  S  C   3   0.13420    -0.23553    -0.09236     0.11270     0.08823    -0.20195
 PX  C   3  -0.06146     0.04164    -0.15884    -0.13400    -0.07337    -0.09021
 PY  C   3  -0.10065    -0.02671     0.00445    -0.09401     0.19583     0.11588
 PZ  C   3  -0.00957     0.00230    -0.00675    -0.00442    -0.00168     0.00211
  
  S  C   4  -0.06525    -0.28510     0.11844     0.09057     0.10541     0.19224
 PX  C   4   0.10543     0.02211     0.03242    -0.17329     0.12435    -0.03968
 PY  C   4  -0.03039     0.02413     0.08908    -0.09763    -0.15199     0.11925
 PZ  C   4  -0.00574    -0.00795     0.00029     0.00525     0.00104     0.00655
  
  S  C   5  -0.29150    -0.09813    -0.14221     0.18222    -0.12834    -0.04002
 PX  C   5   0.04044    -0.14294     0.13757     0.09419     0.03753     0.19697
 PY  C   5   0.02165    -0.07683     0.07080     0.02250    -0.09585     0.10307
 PZ  C   5   0.00477    -0.00292     0.00281     0.00053    -0.00421     0.00227
  
  S  C   6  -0.21158     0.25099    -0.22351    -0.18846     0.02189    -0.20720
 PX  C   6   0.00637    -0.03097     0.04456     0.08864     0.03434     0.07318
 PY  C   6  -0.11448    -0.10621    -0.10612     0.16304    -0.07439    -0.12477
 PZ  C   6  -0.00512    -0.01254    -0.00440     0.01888    -0.00566    -0.00659
  
  S  C   7  -0.14299     0.00470    -0.26614    -0.08104    -0.18001    -0.03699
 PX  C   7  -0.14106     0.12549     0.04733    -0.00729    -0.11466     0.21382
 PY  C   7  -0.08069     0.07613     0.00816    -0.08089     0.16196     0.12020
 PZ  C   7  -0.00963     0.00441    -0.00474    -0.00008    -0.01004     0.00718
  
  S  C   8   0.12959     0.01689     0.21943    -0.17415    -0.16381     0.02874
 PX  C   8   0.10022     0.17651    -0.04732    -0.06173     0.05315    -0.19290
 PY  C   8   0.06090     0.08920    -0.00708     0.04222    -0.19717    -0.10571
 PZ  C   8  -0.00009     0.00396    -0.00690     0.00499     0.00726    -0.00546
  
  S  C   9   0.16356     0.27129     0.02467     0.00912     0.08715    -0.16485
 PX  C   9  -0.06037     0.00529    -0.08013     0.20153     0.11759     0.04509
 PY  C   9   0.14452     0.00048    -0.01988     0.09402    -0.21995    -0.12227
 PZ  C   9   0.00172     0.00085    -0.00650     0.01465     0.00310    -0.00086
  
  S  C  10  -0.24873     0.20623    -0.00332     0.02969     0.06524     0.19284
 PX  C  10  -0.05611    -0.04080     0.14757     0.14990    -0.12726     0.05429
 PY  C  10   0.11470     0.03353     0.08140     0.08818     0.22585    -0.10454
 PZ  C  10  -0.00520    -0.00011     0.00703     0.01193    -0.00056     0.00342
  
  S  C  11  -0.16035    -0.04684     0.27550     0.06673    -0.17957    -0.00618
 PX  C  11   0.12376    -0.13192     0.04393    -0.11575    -0.06155    -0.19188
 PY  C  11   0.06948    -0.07195     0.03840     0.02089     0.17772    -0.11760
 PZ  C  11   0.01378    -0.00991    -0.00537    -0.00653     0.01578    -0.01692
  
  S  H  12  -0.07457    -0.02426     0.12287    -0.01123    -0.20885     0.00121
  
  S  C  13   0.17770     0.03353    -0.21267     0.16082    -0.16172     0.00485
 PX  C  13  -0.08577    -0.16310    -0.08653    -0.00126     0.12448     0.18746
 PY  C  13  -0.04787    -0.09310    -0.05825    -0.09018    -0.15150     0.11905
 PZ  C  13  -0.00506    -0.01485    -0.01159    -0.00097     0.00153     0.01852
  
  S  H  14  -0.06405    -0.00297    -0.11531    -0.00007    -0.21679    -0.02176
  
  S  H  15   0.05362     0.16107     0.07141    -0.18968     0.00430     0.13058
  
  S  H  16   0.14894     0.00096     0.08291     0.03606    -0.13270     0.00935
  
  S  H  17  -0.13949    -0.05225    -0.06433     0.07826    -0.13274    -0.01432
  
  S  H  18  -0.10947     0.14427    -0.13984    -0.14938    -0.00839    -0.15255
  
  S  H  19   0.07025     0.00995     0.11345    -0.04845    -0.21534     0.00731
  
  S  H  20   0.08392     0.01598    -0.09988     0.02944    -0.20706     0.00826
  
  S  C  21   0.26181    -0.00189    -0.18176    -0.11315    -0.12213     0.03997
 PX  C  21   0.01559     0.13820    -0.11084     0.16189    -0.04570     0.18227
 PY  C  21   0.01529     0.07901    -0.07626     0.06474     0.09708     0.09182
 PZ  C  21  -0.00327    -0.01046     0.00750    -0.01451    -0.00150    -0.01364
  
  S  C  22   0.12446     0.26815    -0.14251     0.28284     0.02303     0.16575
 PX  C  22   0.00404     0.02867    -0.01660     0.10287    -0.04419     0.06004
 PY  C  22  -0.13442     0.05978     0.16412     0.11918     0.07111    -0.11209
 PZ  C  22   0.00545    -0.00155    -0.00630    -0.01300     0.00012    -0.00011
  
  S  C  23  -0.20194     0.21832     0.25834     0.19811     0.02591    -0.18684
 PX  C  23   0.09312     0.09080    -0.06518     0.18520     0.03588     0.04549
 PY  C  23  -0.06105    -0.02940     0.09623    -0.01847    -0.07240    -0.09271
 PZ  C  23  -0.01117    -0.00282     0.01123    -0.01432    -0.00249    -0.00928
  
  S  C  24  -0.25656    -0.07083     0.12906    -0.16725    -0.12042    -0.00145
 PX  C  24  -0.05860     0.12200     0.17243     0.07504     0.06836    -0.18781
 PY  C  24  -0.02400     0.06917     0.09471     0.06848    -0.08667    -0.08962
 PZ  C  24   0.00956    -0.00580    -0.01129    -0.00495    -0.00218     0.00997
  
  S  H  25   0.12428     0.00744    -0.08986    -0.03316    -0.12844     0.04008
  
  S  H  26   0.05511     0.14840    -0.07009     0.20607    -0.01002     0.11229
  
  S  H  27  -0.09960     0.11617     0.15470     0.14204    -0.01338    -0.12788
  
  S  H  28  -0.11771    -0.03517     0.05755    -0.07056    -0.13231     0.01050
  
  S  C  29   0.09613    -0.24241     0.10130    -0.16106     0.09489    -0.19247
 PX  C  29   0.09440     0.01452    -0.07504    -0.15257    -0.11630    -0.03429
 PY  C  29   0.01289    -0.01400    -0.15027    -0.04472     0.16323     0.09964
 PZ  C  29  -0.00115     0.00100    -0.00657    -0.00454     0.00209     0.00259
  
  S  C  30  -0.02078    -0.24229    -0.17107    -0.09179     0.09880     0.16785
 PX  C  30  -0.06130    -0.03296     0.10881    -0.17256     0.07843    -0.07071
 PY  C  30  -0.08363     0.00267    -0.04125    -0.09026    -0.18349     0.11867
 PZ  C  30  -0.00237    -0.00074     0.00521    -0.01075    -0.00167    -0.00184




    ROOT NO.   13          14          15          16          17          18

           -25.00387   -24.07867   -22.77379   -21.49604   -20.61365   -19.27626
  
  
  S  C   1   0.00850     0.11054    -0.01219     0.18753    -0.02402     0.00554
 PX  C   1   0.04200    -0.23241     0.01089    -0.03711     0.21471     0.16365
 PY  C   1  -0.14219    -0.00332     0.20023    -0.08161    -0.10920     0.18688
 PZ  C   1  -0.01028    -0.01199     0.02001    -0.01043     0.00151     0.03417
  
  S  C   2   0.16329    -0.16814    -0.11397    -0.14160     0.10356     0.01051
 PX  C   2   0.05745     0.04606    -0.06256    -0.17470    -0.14824    -0.14362
 PY  C   2  -0.18205     0.00666     0.21711    -0.04373    -0.14567     0.07666
 PZ  C   2  -0.01007     0.00282     0.01552    -0.00692    -0.01852     0.00778
  
  S  C   3  -0.12934     0.10877     0.01651    -0.09103    -0.07498    -0.13716
 PX  C   3   0.14186     0.13562    -0.16870     0.11164     0.00337     0.00704
 PY  C   3  -0.17778     0.07696     0.01690     0.10699     0.14024    -0.08020
 PZ  C   3   0.00285     0.00408    -0.00051     0.01512    -0.00276     0.00468
  
  S  C   4  -0.10243     0.10363     0.00930     0.09461    -0.06517    -0.15443
 PX  C   4  -0.08795     0.15978    -0.06849    -0.17893     0.08772    -0.06825
 PY  C   4   0.23066     0.08415    -0.16248    -0.00401    -0.07677     0.02905
 PZ  C   4   0.00166    -0.00246    -0.00594     0.01497     0.00341    -0.00987
  
  S  C   5   0.15949    -0.18638    -0.11250     0.10197     0.12372     0.00650
 PX  C   5  -0.07322     0.02302     0.12065     0.18862    -0.17879    -0.02739
 PY  C   5   0.16707     0.02816    -0.18547     0.09285    -0.02216    -0.18914
 PZ  C   5   0.01040    -0.00225    -0.01677     0.00453     0.01156    -0.01429
  
  S  C   6  -0.03030     0.11717     0.00344    -0.16847    -0.04403     0.02045
 PX  C   6  -0.08665    -0.12945     0.17558     0.14477     0.02541     0.24873
 PY  C   6   0.08608    -0.19328    -0.08223    -0.09864     0.22799     0.05257
 PZ  C   6   0.00572    -0.02505    -0.00251    -0.00328     0.02765     0.01809
  
  S  C   7   0.12668     0.09724     0.05326     0.22590    -0.04687     0.14555
 PX  C   7   0.03236    -0.12932     0.17876     0.07001     0.02312     0.12756
 PY  C   7  -0.09902    -0.10281    -0.03689    -0.00074     0.21995    -0.01702
 PZ  C   7   0.00623     0.00011     0.01015     0.01223    -0.01070     0.01283
  
  S  C   8   0.12732     0.11728     0.05011    -0.18560    -0.07988     0.16893
 PX  C   8  -0.09111    -0.16123     0.08299    -0.06223     0.19289     0.07079
 PY  C   8   0.07706    -0.05721     0.16790    -0.02582    -0.11754     0.14867
 PZ  C   8  -0.00681    -0.01019    -0.00309     0.01255     0.01365    -0.01266
  
  S  C   9  -0.01234    -0.23512    -0.01957    -0.00815     0.01542    -0.00955
 PX  C   9   0.00208    -0.05745    -0.11489     0.15614    -0.16468    -0.16055
 PY  C   9   0.00540     0.08142     0.19376     0.10043    -0.10489    -0.08067
 PZ  C   9  -0.00071     0.00149    -0.00409     0.01639    -0.01019    -0.00944
  
  S  C  10   0.00645    -0.21193    -0.00030    -0.02727    -0.00759    -0.01679
 PX  C  10  -0.00220     0.07450     0.11261    -0.17854    -0.20137    -0.14224
 PY  C  10  -0.01697    -0.09058    -0.20580    -0.09966    -0.08882    -0.07831
 PZ  C  10   0.00324     0.00464     0.00070    -0.00708    -0.02213     0.00015
  
  S  C  11  -0.12853     0.13035     0.06555    -0.20219     0.05411    -0.12862
 PX  C  11  -0.08723     0.13375    -0.06217     0.08685     0.22654     0.07659
 PY  C  11   0.06274     0.04708    -0.17432     0.05859    -0.08539     0.16541
 PZ  C  11   0.00705     0.00923    -0.02054     0.01872    -0.00147     0.03906
  
  S  H  12  -0.12863     0.08171     0.11074    -0.10091     0.15279    -0.14331
  
  S  C  13  -0.11725     0.10201     0.05481     0.20646     0.07536    -0.17664
 PX  C  13   0.02438     0.14216    -0.16913    -0.06317     0.01646     0.15501
 PY  C  13  -0.10101     0.10563     0.04496    -0.02919     0.22003    -0.01891
 PZ  C  13  -0.00466     0.01940    -0.01310    -0.00171     0.01308     0.01914
  
  S  H  14   0.13023     0.06965     0.10167     0.12924    -0.14713     0.12494
  
  S  H  15   0.05776     0.15015    -0.11668     0.15597    -0.04565    -0.18857
  
  S  H  16   0.20480    -0.07507    -0.20315    -0.09714     0.09299    -0.08929
  
  S  H  17   0.20033    -0.08480    -0.20145     0.05112     0.10134    -0.10645
  
  S  H  18   0.03702     0.14689    -0.11407    -0.19018    -0.04468    -0.17704
  
  S  H  19   0.13489     0.07441     0.10220    -0.08776    -0.16745     0.15904
  
  S  H  20  -0.12241     0.06454     0.10788     0.09972     0.15689    -0.14978
  
  S  C  21  -0.17118    -0.18340    -0.11088     0.11097    -0.10215    -0.03021
 PX  C  21  -0.11747    -0.00180    -0.14097    -0.15785    -0.20734     0.02857
 PY  C  21   0.16138    -0.01753     0.15388    -0.11086    -0.05172    -0.14020
 PZ  C  21  -0.00160    -0.00607    -0.00309     0.02164     0.00616     0.01320
  
  S  C  22   0.01736     0.15073     0.01122    -0.15914     0.04473     0.01213
 PX  C  22  -0.11222     0.13236    -0.16353    -0.09131     0.01490     0.25583
 PY  C  22   0.11074     0.20298     0.09494     0.04818     0.24975     0.02811
 PZ  C  22   0.00323    -0.02589     0.00803     0.01018    -0.02179    -0.02619
  
  S  C  23   0.00857     0.11229    -0.01145     0.17245     0.04620    -0.02963
 PX  C  23   0.03815     0.23787    -0.00156     0.02512     0.21188     0.13671
 PY  C  23  -0.15720    -0.01761    -0.20307     0.14290    -0.11533     0.17032
 PZ  C  23  -0.00323    -0.02566    -0.00053     0.00227    -0.02772    -0.01381
  
  S  C  24  -0.17023    -0.17592    -0.10142    -0.12177    -0.10760     0.01061
 PX  C  24   0.08051    -0.04686     0.04861     0.16963    -0.12876    -0.14520
 PY  C  24  -0.18380    -0.01216    -0.20335     0.09980    -0.12618     0.09213
 PZ  C  24  -0.00347    -0.00016    -0.00530    -0.01352     0.00244     0.02276
  
  S  H  25  -0.21429    -0.08501    -0.19279     0.05311    -0.10694     0.07935
  
  S  H  26  -0.05336     0.17573    -0.09658    -0.14092     0.05359     0.20349
  
  S  H  27  -0.06780     0.12451    -0.12272     0.18310     0.03046     0.14849
  
  S  H  28  -0.21532    -0.08087    -0.18180    -0.05862    -0.08254     0.11221
  
  S  C  29   0.11295     0.07538     0.00057     0.11309     0.06868     0.15726
 PX  C  29  -0.07591    -0.15911     0.07907     0.15144     0.12757    -0.12724
 PY  C  29   0.23496    -0.08875     0.13133     0.00865    -0.11508     0.02329
 PZ  C  29   0.00400    -0.00266    -0.00145     0.00566    -0.00188     0.02418
  
  S  C  30   0.12477     0.10403     0.01552    -0.09012     0.04305     0.14554
 PX  C  30   0.15706    -0.15332     0.15337    -0.11531    -0.03953     0.00712
 PY  C  30  -0.17997    -0.06992     0.01381    -0.14086     0.14719    -0.09787
 PZ  C  30   0.00089    -0.00592     0.00145    -0.00995     0.00172     0.02321




    ROOT NO.   19          20          21          22          23          24

           -18.49822   -17.24214   -16.81586   -16.71484   -15.96926   -15.42381
  
  
  S  C   1  -0.16021     0.03859    -0.01403     0.11790     0.03589     0.05521
 PX  C   1   0.12954     0.16488     0.08277     0.01656     0.13387     0.09638
 PY  C   1   0.09172    -0.19455    -0.06074    -0.04084     0.15253     0.08851
 PZ  C   1   0.01784    -0.01147    -0.00453    -0.00588     0.03493     0.02789
  
  S  C   2   0.15358    -0.05014     0.01546    -0.04994    -0.01112     0.01571
 PX  C   2   0.04530    -0.22552    -0.07377    -0.09399    -0.14985    -0.10098
 PY  C   2  -0.05233    -0.11099    -0.00703     0.27908    -0.11005     0.20146
 PZ  C   2  -0.00417    -0.01881    -0.00856     0.00845    -0.00714     0.01996
  
  S  C   3  -0.06230     0.02601     0.04977     0.21533    -0.07126     0.00401
 PX  C   3  -0.17326     0.01957    -0.02967     0.04602     0.28266    -0.05873
 PY  C   3   0.00684     0.28184     0.09206    -0.08248    -0.00028    -0.10199
 PZ  C   3  -0.01603     0.00963    -0.00553    -0.01634    -0.00266    -0.00090
  
  S  C   4   0.06111     0.03484     0.00425    -0.23211    -0.06403    -0.05996
 PX  C   4   0.16117     0.20308     0.07977     0.07053     0.05991     0.12517
 PY  C   4   0.06656    -0.15655    -0.07693    -0.09607     0.19334     0.10489
 PZ  C   4  -0.01905     0.00644    -0.00788    -0.01380    -0.02523     0.00470
  
  S  C   5  -0.15773     0.03688    -0.03301     0.06079    -0.00873    -0.01140
 PX  C   5  -0.06033    -0.20659    -0.06823    -0.21276    -0.08493    -0.13491
 PY  C   5  -0.12688    -0.06630     0.01046     0.22671    -0.21871     0.16548
 PZ  C   5  -0.01929     0.01397     0.00153     0.03733    -0.02576     0.03487
  
  S  C   6   0.15140    -0.04170     0.00290    -0.10831     0.07647    -0.02260
 PX  C   6  -0.16642    -0.00830    -0.09073     0.04902     0.25040    -0.00806
 PY  C   6   0.06930     0.23622     0.06558    -0.02904     0.07919    -0.07702
 PZ  C   6  -0.00347     0.02914     0.00193     0.01004     0.02133     0.01166
  
  S  C   7  -0.07304     0.05818     0.01253    -0.05161     0.07130    -0.01412
 PX  C   7   0.18441     0.01416     0.01924    -0.18289    -0.22039     0.04243
 PY  C   7   0.11100    -0.04858     0.14209     0.20987    -0.02271    -0.12700
 PZ  C   7  -0.00242     0.01426    -0.00038    -0.02926    -0.01887    -0.00455
  
  S  C   8   0.10059     0.00699    -0.01399     0.05315     0.07067     0.05014
 PX  C   8  -0.16211     0.13973    -0.10381    -0.06005    -0.19378     0.01779
 PY  C   8  -0.05318    -0.06669     0.09464     0.26611    -0.04367    -0.14514
 PZ  C   8  -0.02026     0.01686    -0.00938    -0.02954    -0.03475     0.00084
  
  S  C   9  -0.15606    -0.04880    -0.16340    -0.11944    -0.08919     0.08295
 PX  C   9   0.01657    -0.14993     0.03600    -0.01449     0.11169    -0.01206
 PY  C   9  -0.04183     0.23721     0.03450    -0.07538    -0.11464    -0.01098
 PZ  C   9  -0.00387     0.01619     0.01033    -0.02126    -0.02366    -0.01935
  
  S  C  10   0.11875    -0.18299     0.09932     0.10278    -0.04157    -0.08317
 PX  C  10   0.03792     0.12084     0.05413     0.04705    -0.04126    -0.01335
 PY  C  10  -0.12233    -0.17666    -0.12034    -0.02114     0.13115     0.06400
 PZ  C  10  -0.00235     0.01906     0.01866    -0.01091    -0.01994    -0.03634
  
  S  C  11  -0.10050     0.07615    -0.03704     0.02938     0.08283     0.00958
 PX  C  11  -0.15963    -0.00307    -0.13537    -0.09247     0.10231     0.06538
 PY  C  11  -0.06758    -0.07460     0.22523    -0.00285     0.11833    -0.22784
 PZ  C  11  -0.01063     0.00135     0.03471    -0.01086    -0.01194    -0.07063
  
  S  H  12  -0.06356     0.09605    -0.25578    -0.02594     0.00210     0.21441
  
  S  C  13   0.10115     0.02531     0.05387    -0.02290     0.08416     0.00293
 PX  C  13   0.14802    -0.01727    -0.18014     0.06115     0.10482     0.22212
 PY  C  13   0.10061    -0.11594     0.17497     0.10762     0.08189    -0.15037
 PZ  C  13   0.01675     0.00391     0.00748     0.00214    -0.01730    -0.01212
  
  S  H  14  -0.04425     0.07641    -0.10251    -0.26762    -0.03194     0.11235
  
  S  H  15  -0.19928     0.06568    -0.00660     0.08065    -0.16611    -0.08592
  
  S  H  16   0.12948    -0.02968    -0.01998    -0.28028     0.01840    -0.18885
  
  S  H  17  -0.14914     0.03925     0.01805     0.29324    -0.13647     0.17887
  
  S  H  18   0.20950    -0.01812     0.07660    -0.09759    -0.17616    -0.00637
  
  S  H  19   0.06982    -0.09444     0.11466     0.26413     0.08197    -0.09973
  
  S  H  20   0.05741    -0.06795     0.25121     0.04864     0.06411    -0.21213
  
  S  C  21   0.15146    -0.03047    -0.04461     0.04905    -0.00871     0.03616
 PX  C  21  -0.01546     0.24748    -0.15523     0.08837     0.10616    -0.13193
 PY  C  21  -0.09206     0.07414     0.27568    -0.07908     0.14368     0.26364
 PZ  C  21   0.02378    -0.01289    -0.02376     0.01243    -0.04576    -0.05726
  
  S  C  22  -0.16096    -0.00973     0.10944    -0.06979     0.05662     0.04751
 PX  C  22  -0.13367     0.04891     0.01448    -0.05022    -0.20787    -0.17105
 PY  C  22  -0.02415    -0.21353    -0.11162    -0.00576    -0.06478    -0.11484
 PZ  C  22   0.02581     0.01447    -0.00468     0.01415     0.01085    -0.00313
  
  S  C  23   0.16613    -0.00165    -0.11366     0.07471     0.04426    -0.02199
 PX  C  23   0.06276    -0.19163     0.00956     0.00979    -0.17896     0.13848
 PY  C  23   0.17769     0.12964     0.01978     0.05360    -0.16304     0.06370
 PZ  C  23  -0.00294     0.02688     0.00781    -0.00219     0.00336    -0.02465
  
  S  C  24  -0.17236    -0.00388     0.04176    -0.06417     0.00474    -0.04134
 PX  C  24   0.13200     0.20246    -0.07805     0.05674     0.18233    -0.12227
 PY  C  24  -0.00538     0.03026     0.32595    -0.11473     0.01757     0.23394
 PZ  C  24  -0.02051    -0.01136     0.03370    -0.01679    -0.05151     0.00209
  
  S  H  25   0.12874     0.05436    -0.29455     0.12227    -0.05792    -0.23824
  
  S  H  26  -0.18790     0.01703     0.06112    -0.07926    -0.16036    -0.13015
  
  S  H  27   0.22960     0.00945    -0.03693     0.08069    -0.17945     0.10192
  
  S  H  28  -0.14356    -0.06884     0.30158    -0.13980    -0.06047     0.20476
  
  S  C  29  -0.02814    -0.02467     0.20557    -0.05654    -0.08511    -0.04716
 PX  C  29   0.10676    -0.24672     0.01706    -0.03257    -0.08129     0.16007
 PY  C  29   0.12946     0.15019    -0.00916     0.02790    -0.20716     0.07528
 PZ  C  29   0.00737     0.00921     0.00583     0.00157    -0.05504    -0.06222
  
  S  C  30   0.06094     0.07680    -0.19392     0.06400    -0.10944     0.00999
 PX  C  30  -0.16208     0.03856     0.03629    -0.01573    -0.18582    -0.20913
 PY  C  30  -0.10554    -0.21832    -0.16063     0.01996     0.04031    -0.06694
 PZ  C  30  -0.01512     0.00380     0.02223    -0.00708    -0.06328    -0.04672




    ROOT NO.   25          26          27          28          29          30

           -15.07582   -14.88065   -14.71401   -14.25424   -13.73088   -13.32936
  
  
  S  C   1   0.01989     0.03844     0.02101    -0.01998     0.04832    -0.00773
 PX  C   1   0.29053    -0.09093     0.02791     0.03781     0.10348    -0.05204
 PY  C   1   0.04701     0.05099    -0.26439     0.01039     0.17764    -0.05950
 PZ  C   1   0.04838     0.06904    -0.05545     0.10431     0.03900     0.23075
  
  S  C   2   0.04542    -0.01668    -0.09793     0.01513    -0.00678    -0.00465
 PX  C   2  -0.27030     0.06402    -0.08552    -0.04204    -0.12715     0.02175
 PY  C   2   0.18708     0.03362    -0.05609    -0.08761    -0.07567    -0.04468
 PZ  C   2   0.03243     0.09561    -0.03403     0.12073    -0.01146     0.26113
  
  S  C   3  -0.02753    -0.02116     0.06515     0.03446     0.00699     0.02715
 PX  C   3  -0.12784    -0.01254     0.02343     0.09471     0.24062    -0.03608
 PY  C   3   0.01163    -0.07684     0.16141     0.04635     0.01706     0.03287
 PZ  C   3   0.04143     0.15016    -0.01717     0.20729    -0.02637     0.31573
  
  S  C   4   0.03418    -0.03065     0.03255    -0.01865     0.01454    -0.01601
 PX  C   4   0.14878     0.07289     0.09371    -0.05133     0.13539     0.03642
 PY  C   4   0.05474     0.09159    -0.13137    -0.02982     0.20043    -0.04481
 PZ  C   4   0.03643     0.15015    -0.04127     0.19602    -0.03139     0.30297
  
  S  C   5  -0.09285     0.04799     0.00537    -0.02197    -0.02669     0.00129
 PX  C   5  -0.08342    -0.08034    -0.11626     0.06405    -0.10485    -0.01782
 PY  C   5   0.19216     0.01856    -0.22044    -0.04742     0.00032    -0.05636
 PZ  C   5   0.04571     0.09848    -0.03971     0.10839    -0.00476     0.25064
  
  S  C   6  -0.00146    -0.01103    -0.02333     0.03132     0.05648     0.01045
 PX  C   6  -0.23907     0.14457     0.03309    -0.03403     0.12466     0.01572
 PY  C   6  -0.04496    -0.04827     0.29087    -0.00834    -0.05499     0.01109
 PZ  C   6   0.01411     0.07264     0.00466     0.08949     0.00956     0.23643
  
  S  C   7   0.06967    -0.05382    -0.00016     0.00444    -0.01390    -0.02455
 PX  C   7   0.15781    -0.01591    -0.06066    -0.10203    -0.23829     0.00656
 PY  C   7  -0.13970    -0.19582    -0.20958     0.18247    -0.04525    -0.00345
 PZ  C   7   0.06143     0.16068     0.00245     0.18993    -0.04719     0.17635
  
  S  C   8  -0.01793     0.05198     0.04330    -0.01087    -0.03679     0.02028
 PX  C   8  -0.11848     0.17865    -0.07386    -0.14378    -0.17982    -0.03471
 PY  C   8  -0.10415    -0.21499     0.12172     0.14976    -0.18183     0.04851
 PZ  C   8   0.03562     0.16370    -0.04319     0.18434    -0.02865     0.15225
  
  S  C   9   0.01479    -0.00205     0.00979    -0.01247     0.00093    -0.01635
 PX  C   9   0.12644    -0.23522     0.09551     0.14201     0.18412     0.01996
 PY  C   9   0.04599    -0.11582     0.04845     0.08467     0.11175    -0.00367
 PZ  C   9   0.05372     0.18232    -0.01693     0.27414    -0.02936     0.03700
  
  S  C  10  -0.02218     0.00075     0.00910    -0.01561     0.00985     0.02505
 PX  C  10  -0.03442     0.19795     0.21893    -0.12207     0.18498     0.02537
 PY  C  10   0.02376     0.09327     0.12914    -0.06779     0.08741     0.00651
 PZ  C  10   0.05847     0.21769     0.01411     0.24928    -0.04011     0.04811
  
  S  C  11  -0.05220     0.06166    -0.01443     0.01587     0.00116    -0.03007
 PX  C  11   0.03157    -0.20250    -0.21064     0.09113    -0.18588    -0.03912
 PY  C  11   0.17281     0.12912     0.04185    -0.18199    -0.18744     0.01283
 PZ  C  11   0.06850     0.15708    -0.00676     0.18965    -0.06855    -0.11488
  
  S  H  12  -0.14096    -0.18040    -0.12447     0.16255     0.07191    -0.02834
  
  S  C  13   0.03932    -0.02463    -0.06203     0.01155     0.02685     0.00399
 PX  C  13  -0.07631    -0.03556     0.05699     0.01521    -0.28059     0.03478
 PY  C  13  -0.06642     0.24513    -0.14669    -0.20627    -0.04802    -0.00689
 PZ  C  13   0.01549     0.15742    -0.01574     0.21433    -0.04729    -0.12566
  
  S  H  14   0.20264     0.13622     0.13374    -0.16580    -0.07590     0.01072
  
  S  H  15  -0.17730     0.02052     0.19389    -0.05355    -0.18040     0.04007
  
  S  H  16  -0.23459    -0.00923    -0.03566     0.04696    -0.00178     0.02904
  
  S  H  17   0.14118     0.07487    -0.13243    -0.06057     0.02694    -0.01418
  
  S  H  18   0.20945    -0.14092    -0.04128     0.04161    -0.09110    -0.02612
  
  S  H  19  -0.04734    -0.22035     0.13957     0.14824    -0.08898     0.04872
  
  S  H  20   0.00071     0.19048    -0.15902    -0.15343     0.10244    -0.02288
  
  S  C  21  -0.02099     0.04402     0.09402    -0.00801     0.01180     0.00840
 PX  C  21  -0.00224     0.07092    -0.10541    -0.02773    -0.13385    -0.09973
 PY  C  21  -0.19371     0.05149    -0.11231     0.01521    -0.10318    -0.03913
 PZ  C  21   0.04066     0.08782     0.03375     0.15081     0.02166    -0.24603
  
  S  C  22   0.01126    -0.02743    -0.02708     0.01901    -0.06280    -0.01228
 PX  C  22   0.06117    -0.11760    -0.15368    -0.00085     0.21018     0.07815
 PY  C  22   0.18744    -0.03740     0.19670     0.04458     0.02344    -0.02689
 PZ  C  22  -0.00241     0.08903     0.01817     0.12322    -0.02419    -0.25601
  
  S  C  23   0.00194     0.04241     0.01896    -0.02172    -0.05841    -0.00450
 PX  C  23  -0.10981     0.09570     0.24645     0.02884     0.07125    -0.08430
 PY  C  23  -0.21258     0.04488    -0.12702    -0.05218     0.14400     0.04928
 PZ  C  23   0.01746     0.05577    -0.01922     0.12760    -0.00182    -0.23571
  
  S  C  24   0.08054    -0.05419     0.01663     0.02714     0.01982     0.00177
 PX  C  24   0.06954    -0.03807    -0.24294    -0.00752    -0.10291     0.01690
 PY  C  24  -0.08017    -0.03943     0.00382     0.05850    -0.08992    -0.03101
 PZ  C  24   0.00089     0.08173     0.03140     0.16463     0.02789    -0.25525
  
  S  H  25   0.12885     0.02117     0.07544    -0.01580     0.02402    -0.03572
  
  S  H  26   0.06941    -0.13209    -0.13920    -0.00100     0.17922     0.09742
  
  S  H  27  -0.21679     0.10063     0.02510    -0.04300     0.12745     0.00287
  
  S  H  28  -0.05046    -0.02919     0.12034     0.06830    -0.00817    -0.04938
  
  S  C  29   0.01115     0.00966    -0.06653    -0.03226     0.01346     0.00192
 PX  C  29  -0.01599    -0.05054     0.16352     0.05192     0.13975     0.08567
 PY  C  29  -0.16125    -0.03208    -0.04829     0.04878     0.23511    -0.00269
 PZ  C  29   0.03857     0.14559     0.00142     0.22911     0.00131    -0.26603
  
  S  C  30  -0.07475    -0.01208    -0.01589     0.02383     0.00396    -0.00700
 PX  C  30   0.01800     0.01904    -0.03979    -0.05292     0.28060    -0.00615
 PY  C  30   0.09831     0.03105     0.15599    -0.03368     0.00101     0.03964
 PZ  C  30   0.02099     0.14966     0.00134     0.23626     0.02051    -0.27419




    ROOT NO.   31          32          33          34          35          36

           -13.14221   -12.92440   -12.17665   -11.93944   -11.60113   -11.50621
  
  
  S  C   1  -0.00675     0.00710    -0.00160    -0.00950     0.00191    -0.00656
 PX  C   1   0.22884    -0.08965    -0.08012    -0.09342     0.06792    -0.05612
 PY  C   1  -0.13390    -0.20640     0.20672    -0.01959    -0.04020    -0.11849
 PZ  C   1  -0.00309    -0.08646    -0.01689     0.22889     0.21184     0.06329
  
  S  C   2  -0.01019    -0.01438    -0.02499    -0.00687    -0.00656     0.05083
 PX  C   2  -0.22227     0.10516     0.04782     0.06584    -0.09133     0.08897
 PY  C   2   0.05305     0.18500    -0.21167    -0.04273    -0.02923     0.17445
 PZ  C   2   0.00947    -0.02758    -0.06229     0.18462     0.15252     0.07642
  
  S  C   3  -0.01211     0.01578    -0.00191    -0.01280     0.01301    -0.00679
 PX  C   3   0.11142    -0.15209    -0.08840    -0.16465     0.13354    -0.04431
 PY  C   3  -0.00842    -0.14171     0.26634     0.09043    -0.01009    -0.23707
 PZ  C   3   0.04570    -0.02917    -0.05489     0.06966     0.03977     0.00321
  
  S  C   4   0.03451    -0.01814     0.01250     0.01395    -0.00486     0.00884
 PX  C   4  -0.21832     0.11348     0.15491     0.14175    -0.15340     0.05621
 PY  C   4  -0.02076     0.08907    -0.22175    -0.08735    -0.01042     0.25715
 PZ  C   4   0.02637    -0.04398    -0.05920     0.06477     0.04986     0.02265
  
  S  C   5  -0.01664     0.00419    -0.02825    -0.02285     0.02820     0.00324
 PX  C   5   0.22652    -0.14859    -0.12956    -0.11235     0.15273    -0.05905
 PY  C   5  -0.04292    -0.16760     0.15607    -0.00725    -0.00168    -0.12469
 PZ  C   5  -0.02779    -0.05459    -0.00607     0.19674     0.14262     0.05245
  
  S  C   6  -0.01724    -0.02346     0.02008     0.01286    -0.00549     0.00731
 PX  C   6  -0.25648     0.08230     0.10355     0.05530    -0.10095     0.04231
 PY  C   6   0.08972     0.23059    -0.18298    -0.02104    -0.03449     0.12616
 PZ  C   6  -0.01977    -0.02389    -0.03932     0.24104     0.19358     0.09963
  
  S  C   7   0.04006    -0.06074     0.00235    -0.01916     0.01584     0.04905
 PX  C   7  -0.11153     0.10560     0.08961     0.14790    -0.12655     0.08557
 PY  C   7  -0.12138    -0.10206    -0.05012    -0.09935    -0.01170     0.22983
 PZ  C   7   0.04026     0.02935     0.00276    -0.07952    -0.12784    -0.05702
  
  S  C   8  -0.04887     0.04854    -0.03202    -0.04223     0.02376     0.02771
 PX  C   8   0.00271    -0.14697    -0.03413    -0.14455     0.18576    -0.09817
 PY  C   8   0.11115    -0.05058     0.12265     0.05685     0.00854    -0.20759
 PZ  C   8   0.01870    -0.00542    -0.03931    -0.11335    -0.09989    -0.00791
  
  S  C   9   0.06707    -0.00103     0.00711     0.01235    -0.00382    -0.00792
 PX  C   9   0.04813     0.11368     0.07217     0.18537    -0.18833     0.06760
 PY  C   9  -0.15512    -0.16937     0.07002    -0.13695     0.03492     0.29561
 PZ  C   9   0.01919     0.05886     0.01313    -0.22359    -0.24307    -0.04747
  
  S  C  10  -0.01781     0.04773    -0.00950    -0.00256     0.01509    -0.00048
 PX  C  10  -0.06757    -0.08805     0.01040    -0.17433     0.20775    -0.04776
 PY  C  10   0.20346     0.14056    -0.01110     0.14653    -0.03415    -0.28639
 PZ  C  10   0.02875     0.05609     0.04193    -0.23892    -0.22155    -0.07459
  
  S  C  11   0.05612    -0.04866     0.02454    -0.03693     0.01555     0.02449
 PX  C  11   0.09580     0.04043     0.00652     0.18323    -0.17190     0.07436
 PY  C  11   0.01610    -0.11408     0.13553    -0.02882     0.03686     0.18368
 PZ  C  11   0.01088     0.05897     0.07854    -0.11495    -0.10150     0.00767
  
  S  H  12   0.05576     0.07986    -0.11907     0.12917    -0.10791    -0.12689
  
  S  C  13  -0.06764     0.04999     0.00458    -0.02395     0.01959     0.04943
 PX  C  13  -0.07973     0.05587     0.04635    -0.12634     0.19139    -0.11359
 PY  C  13   0.10882     0.07921    -0.13140     0.09223     0.01254    -0.22286
 PZ  C  13   0.01047     0.08595     0.01852    -0.10827    -0.09491    -0.06542
  
  S  H  14   0.07400     0.10820     0.09236     0.15315    -0.06348    -0.16892
  
  S  H  15  -0.02401     0.23209    -0.12280     0.03580    -0.03688     0.12174
  
  S  H  16  -0.14954    -0.11387     0.20920     0.06250    -0.03374    -0.10654
  
  S  H  17  -0.14463    -0.08444     0.18945     0.05660    -0.04678    -0.08903
  
  S  H  18   0.23980    -0.08895    -0.09000    -0.06640     0.08563    -0.04920
  
  S  H  19   0.06473     0.04107     0.11375     0.11517    -0.05999    -0.14574
  
  S  H  20   0.09476     0.06016    -0.14234     0.14603    -0.09346    -0.13569
  
  S  C  21  -0.00446    -0.02188     0.02018    -0.03837     0.02965    -0.00479
 PX  C  21   0.07209    -0.19955    -0.09026     0.15002    -0.15897     0.07606
 PY  C  21   0.20557     0.03981     0.16195     0.02315     0.01235     0.10504
 PZ  C  21  -0.04720     0.06240     0.01159     0.13405     0.20845     0.01201
  
  S  C  22  -0.01399    -0.00043     0.00247     0.00722    -0.00376     0.01075
 PX  C  22  -0.02736     0.27386     0.07231    -0.06736     0.14598    -0.05901
 PY  C  22  -0.24945    -0.08508    -0.17991     0.00453     0.01637    -0.09965
 PZ  C  22   0.00232     0.02121     0.02662     0.20654     0.23935     0.06383
  
  S  C  23  -0.00290    -0.03503    -0.01557    -0.00578    -0.01061    -0.01191
 PX  C  23   0.08724    -0.24025    -0.03456     0.10921    -0.10987     0.09993
 PY  C  23   0.26153     0.11522     0.18422    -0.01368     0.01237     0.08446
 PZ  C  23  -0.01811     0.08112     0.03012     0.18959     0.25664     0.04251
  
  S  C  24  -0.03309     0.01265     0.03199    -0.00868     0.00958     0.04075
 PX  C  24  -0.09754     0.22656    -0.00314    -0.06225     0.14954    -0.12312
 PY  C  24  -0.20240    -0.05435    -0.22028     0.01111    -0.00100    -0.15826
 PZ  C  24  -0.00212     0.03542     0.01551     0.16729     0.14968     0.04748
  
  S  H  25  -0.12778    -0.14622    -0.18211     0.06246    -0.07922    -0.05385
  
  S  H  26  -0.04889     0.26140     0.05784    -0.08913     0.12192    -0.07354
  
  S  H  27   0.26612    -0.04395     0.13424     0.04089    -0.06276     0.12381
  
  S  H  28  -0.13744    -0.14769    -0.18293     0.05491    -0.07053    -0.06219
  
  S  C  29  -0.02328     0.03154    -0.01492     0.01183     0.00083     0.00561
 PX  C  29  -0.05397     0.19006     0.11321    -0.16462     0.17931    -0.07276
 PY  C  29  -0.06474     0.01280    -0.24449     0.06303    -0.05547    -0.20584
 PZ  C  29  -0.01306     0.09594     0.04725     0.02361     0.05299    -0.00381
  
  S  C  30   0.04179    -0.01759     0.00378    -0.00322     0.00064    -0.00876
 PX  C  30   0.13143    -0.08849    -0.06466     0.15274    -0.20086     0.08313
 PY  C  30   0.15767     0.00783     0.28081    -0.07524     0.04391     0.20223
 PZ  C  30   0.01851     0.08450     0.03724     0.04625     0.01416     0.00350




    ROOT NO.   37          38          39          40          41          42

           -10.63445    -9.78510    -9.66349    -8.36549    -8.01308    -6.74411
  
  
  S  C   1  -0.00091     0.00218     0.00158    -0.00282    -0.00227    -0.00220
 PX  C   1   0.00945     0.01341    -0.02108     0.01818    -0.01921     0.01237
 PY  C   1   0.00687     0.05415    -0.02376     0.02010    -0.04255     0.02014
 PZ  C   1  -0.06712    -0.32181     0.21757    -0.19568     0.29329    -0.17281
  
  S  C   2  -0.00945     0.00224     0.01070    -0.00538     0.00045    -0.00162
 PX  C   2  -0.00040     0.00793    -0.00764     0.01168     0.00349     0.00880
 PY  C   2   0.00437     0.00017    -0.02380     0.02904     0.00508     0.01675
 PZ  C   2  -0.16519    -0.09192     0.35683    -0.35490     0.03033    -0.22122
  
  S  C   3  -0.00766     0.00951     0.00954    -0.00703    -0.01221    -0.00095
 PX  C   3  -0.00169    -0.01599    -0.00415     0.01464     0.00884     0.00652
 PY  C   3   0.01708     0.00113    -0.00499    -0.01532     0.00134    -0.01750
 PZ  C   3  -0.19098     0.27855     0.21708    -0.09571    -0.35452     0.12100
  
  S  C   4  -0.00891    -0.02398     0.01557    -0.00014     0.02254     0.01240
 PX  C   4   0.00473     0.02321    -0.00421    -0.01314    -0.01792    -0.00790
 PY  C   4  -0.01733    -0.00098     0.00345     0.01560    -0.00732     0.01995
 PZ  C   4   0.18410     0.23794    -0.28260     0.02732    -0.35675    -0.14084
  
  S  C   5  -0.00211    -0.00517     0.00043     0.00633    -0.00015     0.00296
 PX  C   5   0.01036    -0.02520    -0.02252     0.03345     0.00313     0.01579
 PY  C   5  -0.02133     0.01235     0.04018    -0.03420     0.00822    -0.01646
 PZ  C   5   0.17814    -0.13748    -0.33629     0.36092    -0.04621     0.21861
  
  S  C   6   0.00710    -0.00649    -0.01196     0.01088     0.00383     0.00656
 PX  C   6  -0.00634     0.02970     0.00990    -0.02030    -0.01536    -0.01339
 PY  C   6  -0.00525     0.02588     0.00817    -0.02489    -0.02037    -0.02158
 PZ  C   6   0.09354    -0.34737    -0.15023     0.26106     0.24437     0.19206
  
  S  C   7   0.02366    -0.00954    -0.01251    -0.00913     0.00484    -0.01283
 PX  C   7   0.01720     0.00155    -0.00585    -0.01777     0.00268    -0.01732
 PY  C   7  -0.02700     0.02227     0.02013     0.01225     0.00120     0.02766
 PZ  C   7  -0.31392     0.22970     0.21413     0.19739    -0.01536     0.38078
  
  S  C   8   0.02387     0.01808    -0.01791    -0.00915    -0.00545    -0.02119
 PX  C   8  -0.01647    -0.02148     0.03229     0.01260     0.00982     0.02374
 PY  C   8   0.02404     0.00076    -0.01509    -0.01392     0.01532    -0.02138
 PZ  C   8   0.30586     0.19653    -0.26784    -0.20687     0.04475    -0.37546
  
  S  C   9  -0.01509    -0.01487    -0.00109     0.00386    -0.00202     0.00311
 PX  C   9  -0.01178     0.00362    -0.01717     0.00070    -0.01893    -0.00522
 PY  C   9  -0.01061     0.00598     0.01463    -0.00115    -0.02180     0.02231
 PZ  C   9   0.26719     0.02076    -0.05610    -0.19602     0.38198    -0.02006
  
  S  C  10   0.01524     0.00558     0.00349    -0.00821    -0.00932     0.00508
 PX  C  10   0.03554    -0.00596     0.00964    -0.01934    -0.03023     0.00353
 PY  C  10   0.01183    -0.01619    -0.02112    -0.00566     0.00134    -0.02328
 PZ  C  10  -0.26660     0.01022     0.03722     0.25920     0.33060     0.02999
  
  S  C  11  -0.03369    -0.02096    -0.01235     0.01858    -0.00326    -0.02942
 PX  C  11   0.00399     0.01656    -0.00475    -0.01432     0.00510     0.01646
 PY  C  11   0.06394     0.04230     0.02691    -0.03459    -0.00016     0.05332
 PZ  C  11  -0.33791    -0.24394    -0.13356     0.22341    -0.03477    -0.37861
  
  S  H  12  -0.01360    -0.00139    -0.01100    -0.00410     0.01124     0.00906
  
  S  C  13  -0.01213     0.00709     0.00215     0.01202    -0.00659    -0.00980
 PX  C  13  -0.01984     0.00799    -0.00847     0.02164    -0.00379    -0.03647
 PY  C  13  -0.01514     0.00803    -0.01081     0.01723     0.00684    -0.02687
 PZ  C  13   0.36280    -0.19786     0.17540    -0.21814    -0.00480     0.36035
  
  S  H  14   0.00713    -0.00058    -0.00412    -0.00215     0.00140    -0.00038
  
  S  H  15  -0.00232    -0.00812     0.00282    -0.00184     0.00691    -0.00161
  
  S  H  16   0.00434     0.01071    -0.00264     0.00038    -0.00481     0.00246
  
  S  H  17  -0.00603     0.01086     0.01281    -0.01058    -0.00115    -0.00188
  
  S  H  18   0.00288    -0.00772    -0.00404     0.00559    -0.00074     0.00128
  
  S  H  19   0.00537     0.00091    -0.00700    -0.00053     0.00370    -0.00043
  
  S  H  20   0.00297     0.00333    -0.00189     0.00158     0.01011     0.00094
  
  S  C  21   0.00704    -0.00481     0.00648     0.00403    -0.00232    -0.00179
 PX  C  21  -0.01616    -0.00041    -0.01459    -0.01337    -0.00583     0.00647
 PY  C  21  -0.03243     0.00023    -0.04430    -0.04263    -0.00652     0.02427
 PZ  C  21  -0.24153     0.07155    -0.33570    -0.32953     0.03037     0.21795
  
  S  C  22  -0.00382    -0.00374    -0.00369    -0.00380    -0.00563     0.00068
 PX  C  22  -0.01179     0.04261    -0.02542    -0.02434     0.03545     0.02530
 PY  C  22  -0.00097     0.01948     0.00005     0.00146     0.02063     0.00453
 PZ  C  22  -0.13101     0.30324    -0.21160    -0.20296     0.25300     0.19910
  
  S  C  23   0.00371    -0.02062     0.00243    -0.00585    -0.01624     0.00708
 PX  C  23   0.00045     0.04376     0.01035     0.02696     0.03048    -0.02321
 PY  C  23  -0.00261     0.00532    -0.00656    -0.00409     0.00174     0.00092
 PZ  C  23   0.10494     0.35529     0.15876     0.25037     0.21673    -0.19169
  
  S  C  24   0.01265     0.01117     0.01175     0.00814     0.00241    -0.00433
 PX  C  24   0.03519     0.00645     0.04450     0.03999    -0.01377    -0.02326
 PY  C  24  -0.02449    -0.01604    -0.01520    -0.00667    -0.00208     0.00326
 PZ  C  24   0.22541     0.16394     0.31613     0.33292    -0.02279    -0.21943
  
  S  H  25   0.00336     0.00387     0.00916     0.01099     0.00764    -0.00571
  
  S  H  26   0.00157     0.01050    -0.00288    -0.00153     0.01030     0.00277
  
  S  H  27  -0.00519     0.01309    -0.00605     0.00162     0.01075    -0.00574
  
  S  H  28  -0.02226    -0.00272    -0.01510    -0.00510     0.00769     0.00101
  
  S  C  29  -0.01329    -0.00102    -0.01407    -0.01295    -0.00737     0.00478
 PX  C  29   0.00409    -0.00968     0.00135     0.00394    -0.00382    -0.00552
 PY  C  29  -0.02000    -0.00237    -0.00578     0.01646     0.02083    -0.01361
 PZ  C  29  -0.23504    -0.30627    -0.18695    -0.05371    -0.32471    -0.16892
  
  S  C  30   0.01000    -0.00802     0.01276     0.00543    -0.00663     0.00263
 PX  C  30  -0.02765     0.02441    -0.02528    -0.00335     0.03306    -0.00539
 PY  C  30   0.01465     0.00637    -0.00029    -0.01227    -0.00455     0.00749
 PZ  C  30   0.25597    -0.24786     0.24148    -0.00503    -0.33131     0.15809




    ROOT NO.   43          44          45          46          47          48

            -1.00660     0.16987     0.32714     1.21785     1.31464     1.81423
  
  
  S  C   1   0.00054    -0.00156    -0.00526     0.00232     0.01304    -0.00593
 PX  C   1  -0.00888     0.02004     0.00684     0.00150    -0.02326    -0.00188
 PY  C   1  -0.02370     0.03002     0.03003    -0.01392    -0.04227     0.00848
 PZ  C   1   0.17980    -0.27002    -0.21725     0.07402     0.38327    -0.04794
  
  S  C   2  -0.00849    -0.00690     0.02036    -0.01594    -0.01175     0.01417
 PX  C   2   0.00925    -0.00521    -0.01012     0.00888     0.01036    -0.00453
 PY  C   2   0.01568    -0.00722    -0.01962     0.01783     0.01660    -0.00890
 PZ  C   2  -0.22594     0.00321     0.34915    -0.28515    -0.22495     0.16067
  
  S  C   3   0.00856     0.00763    -0.02777     0.01606     0.01870    -0.01236
 PX  C   3   0.00763    -0.00143     0.00126    -0.02577     0.00037     0.02078
 PY  C   3  -0.00060    -0.01146     0.00370    -0.00536     0.00435     0.00228
 PZ  C   3  -0.11978     0.36444    -0.06737     0.30305    -0.17529    -0.21080
  
  S  C   4   0.00239     0.02559     0.00555    -0.00842    -0.03730     0.01154
 PX  C   4  -0.01180    -0.01353     0.00508    -0.00052     0.01211    -0.00350
 PY  C   4  -0.00864     0.00459    -0.00244     0.00640     0.00678    -0.00744
 PZ  C   4  -0.14570    -0.35249    -0.06506     0.16887     0.33777    -0.19888
  
  S  C   5  -0.00774    -0.01472     0.01060    -0.00874     0.02968    -0.00155
 PX  C   5  -0.00982    -0.00501     0.01438    -0.00988     0.00922     0.00320
 PY  C   5   0.02388     0.00617    -0.03656     0.03737    -0.00642    -0.02091
 PZ  C   5  -0.22479     0.00657     0.35943    -0.35426    -0.00333     0.20400
  
  S  C   6   0.01080     0.01200    -0.01818     0.01979    -0.02062    -0.00737
 PX  C   6  -0.00681    -0.01344     0.00712    -0.01043     0.01033     0.00636
 PY  C   6  -0.01610    -0.02505     0.01727    -0.02210     0.02126     0.01098
 PZ  C   6   0.20179     0.26528    -0.23592     0.26330    -0.26558    -0.12037
  
  S  C   7  -0.02386    -0.00783     0.02745     0.02051    -0.02216    -0.01913
 PX  C   7  -0.01647    -0.00397     0.00378     0.02826    -0.00175    -0.02312
 PY  C   7   0.01615    -0.00585    -0.00502    -0.00656     0.00395     0.02162
 PZ  C   7   0.37022    -0.00460    -0.18520    -0.25527     0.12203     0.33534
  
  S  C   8   0.02315    -0.00628    -0.00576    -0.01417    -0.00061     0.01526
 PX  C   8  -0.01123     0.01412     0.01873     0.00667     0.00974    -0.02142
 PY  C   8   0.02092     0.00743    -0.00896    -0.01058    -0.02441     0.02066
 PZ  C   8   0.37595    -0.02479    -0.20553    -0.15843    -0.27506     0.30646
  
  S  C   9  -0.01625    -0.00845    -0.01201     0.01092    -0.00944     0.00424
 PX  C   9  -0.00557    -0.02380    -0.01756    -0.00211    -0.00445     0.02155
 PY  C   9  -0.00149    -0.00781    -0.01714    -0.01233     0.00533     0.00788
 PZ  C   9  -0.01565     0.35482     0.24645     0.02551     0.03713    -0.27351
  
  S  C  10   0.02078     0.02104    -0.01272    -0.03339     0.01556    -0.01126
 PX  C  10   0.00647     0.02700    -0.00925    -0.01727     0.00588    -0.00867
 PY  C  10  -0.00737     0.00709     0.00469     0.00440    -0.00687    -0.00205
 PZ  C  10  -0.04050    -0.36139     0.22205     0.01814     0.00248    -0.29175
  
  S  C  11  -0.03778    -0.01297    -0.01238     0.05743    -0.03563     0.07345
 PX  C  11   0.01732     0.00240     0.00413    -0.00233     0.00246     0.00611
 PY  C  11   0.04572    -0.00509     0.03214    -0.01744     0.01519    -0.03223
 PZ  C  11  -0.35855     0.00227    -0.22271     0.22312    -0.16709     0.31786
  
  S  H  12   0.01888     0.00267     0.01814    -0.02966     0.02346    -0.05169
  
  S  C  13   0.01623     0.00680     0.02128     0.00050     0.01448    -0.01509
 PX  C  13   0.03336     0.00382     0.02240    -0.00156    -0.00838    -0.02175
 PY  C  13   0.01915    -0.00274     0.01002    -0.00308    -0.01667    -0.01815
 PZ  C  13  -0.36343     0.04308    -0.20395     0.12237     0.24191     0.34880
  
  S  H  14   0.01256    -0.00058    -0.01108    -0.01357     0.01496     0.01969
  
  S  H  15  -0.00087     0.00060     0.00636    -0.00417    -0.01089     0.00574
  
  S  H  16   0.00336     0.00592    -0.00806     0.00906     0.00287    -0.00744
  
  S  H  17   0.00104     0.00956     0.00004     0.00185    -0.01750     0.00205
  
  S  H  18  -0.00881    -0.00586     0.01560    -0.01634     0.01045     0.00762
  
  S  H  19  -0.01286    -0.00008     0.00956     0.01092     0.00810    -0.01552
  
  S  H  20  -0.01075    -0.00513    -0.00461     0.00880    -0.00487     0.01369
  
  S  C  21  -0.00576    -0.01437    -0.00226     0.01467    -0.02922     0.01502
 PX  C  21   0.01864     0.01260     0.01478    -0.00321     0.02200    -0.00675
 PY  C  21   0.02560    -0.00115     0.03561     0.03048     0.01537     0.02143
 PZ  C  21   0.20901    -0.02024     0.34018     0.30908     0.16584     0.22903
  
  S  C  22   0.00581     0.01208    -0.00140    -0.01803     0.02332    -0.01374
 PX  C  22  -0.02515    -0.03090    -0.02663    -0.00789    -0.04837    -0.01512
 PY  C  22  -0.02078    -0.00945    -0.01963    -0.00642    -0.01484    -0.00236
 PZ  C  22  -0.21540    -0.21612    -0.24829    -0.10506    -0.34500    -0.13410
  
  S  C  23   0.00927    -0.02158     0.00066     0.00191    -0.03847    -0.00969
 PX  C  23  -0.01990     0.02922    -0.01744    -0.02051     0.03199    -0.00348
 PY  C  23   0.00438     0.00081     0.00552     0.00164     0.00312    -0.00101
 PZ  C  23  -0.18292     0.24879    -0.21763    -0.26552     0.28289    -0.06776
  
  S  C  24   0.00747     0.01017     0.01907     0.01248     0.02462     0.00307
 PX  C  24   0.02399    -0.00770     0.02830     0.03046    -0.01038     0.01901
 PY  C  24  -0.00709    -0.00689    -0.01636    -0.01220    -0.01282    -0.00428
 PZ  C  24   0.22296    -0.02802     0.34117     0.35759    -0.05472     0.18942
  
  S  H  25  -0.00342     0.00767     0.00283     0.00256     0.01884     0.00341
  
  S  H  26  -0.00571    -0.00817     0.00413     0.01948    -0.01112     0.01786
  
  S  H  27  -0.00486     0.01776     0.00426     0.00460     0.03078     0.01264
  
  S  H  28  -0.01023    -0.00099    -0.01079    -0.00239    -0.00817     0.00537
  
  S  C  29   0.01752     0.02707     0.00087    -0.04283     0.04351    -0.04959
 PX  C  29  -0.00722    -0.00560    -0.00544     0.00315    -0.01034     0.00527
 PY  C  29  -0.02656    -0.00581    -0.00806     0.01950    -0.00711     0.02077
 PZ  C  29   0.19305     0.32816    -0.01100    -0.30569     0.22695    -0.21956
  
  S  C  30  -0.00657    -0.02376    -0.02062    -0.00195    -0.04333     0.01223
 PX  C  30  -0.02035     0.01590    -0.00205     0.01013     0.01388     0.01565
 PY  C  30   0.00558     0.01080    -0.00009    -0.01538     0.01577    -0.01430
 PZ  C  30   0.14592    -0.33368    -0.05187    -0.15610    -0.31889    -0.24850




    ROOT NO.   49          50          51          52          53          54

             2.33323     2.44893     2.76797     3.07004     3.27386     3.33055
  
  
  S  C   1  -0.09461    -0.05768     0.19962     0.03010     0.26378    -0.04819
 PX  C   1  -0.00507    -0.03284     0.02547    -0.01322     0.03543     0.05304
 PY  C   1   0.01184    -0.03402     0.02386    -0.02524    -0.01375    -0.06890
 PZ  C   1  -0.21208     0.25078     0.00027     0.24187    -0.01471     0.03518
  
  S  C   2   0.12857     0.09436    -0.24473    -0.02569    -0.27149    -0.04090
 PX  C   2   0.00978     0.02770    -0.00875     0.02100     0.03048    -0.04281
 PY  C   2   0.02722     0.05139    -0.05762     0.02817    -0.02796    -0.02048
 PZ  C   2   0.15890    -0.19944    -0.00305    -0.25764     0.02295    -0.03922
  
  S  C   3  -0.18521    -0.16242     0.30269    -0.03208     0.17751     0.06265
 PX  C   3  -0.00704    -0.00803    -0.05204    -0.02005    -0.01908     0.12623
 PY  C   3  -0.01236    -0.03277     0.02014    -0.03467    -0.10910    -0.08932
 PZ  C   3  -0.04911     0.07319     0.03147     0.31175    -0.00413     0.04950
  
  S  C   4   0.17079     0.16516    -0.28633     0.05585     0.08002     0.22650
 PX  C   4   0.01960     0.02776     0.00132    -0.00455     0.01971    -0.08724
 PY  C   4  -0.01846    -0.00051     0.06122    -0.00502     0.14021     0.05370
 PZ  C   4   0.07241    -0.03996    -0.06457    -0.29579    -0.01265    -0.02188
  
  S  C   5  -0.12864    -0.09464     0.23419    -0.02688    -0.01635    -0.28699
 PX  C   5  -0.04984    -0.04497     0.06242    -0.01843    -0.05732    -0.03567
 PY  C   5   0.02561    -0.01873    -0.01976    -0.03452    -0.03058     0.01179
 PZ  C   5  -0.16161     0.17380     0.01615     0.24573     0.01133     0.05244
  
  S  C   6   0.09627     0.04375    -0.18132    -0.02668    -0.09383     0.21317
 PX  C   6   0.01561     0.03194    -0.04832     0.01452    -0.02556     0.03109
 PY  C   6  -0.00765     0.03173    -0.00704     0.03498     0.08608     0.06722
 PZ  C   6   0.20878    -0.23982     0.00284    -0.23091     0.01084    -0.05130
  
  S  C   7   0.18491     0.15276    -0.16542     0.05545    -0.05454    -0.26177
 PX  C   7  -0.01099    -0.01648     0.09845     0.00675     0.08521    -0.06757
 PY  C   7   0.02558     0.03453     0.01381    -0.00888     0.03511    -0.07462
 PZ  C   7  -0.09039     0.10666    -0.04699    -0.15047    -0.02319    -0.06521
  
  S  C   8  -0.14524    -0.16184     0.14720    -0.01114    -0.27538    -0.09407
 PX  C   8  -0.02703    -0.01349    -0.05929    -0.00067    -0.10826     0.08290
 PY  C   8   0.03787     0.02318    -0.06616     0.02345     0.00187     0.05698
 PZ  C   8   0.10845    -0.10306     0.00586     0.14058     0.05199     0.02853
  
  S  C   9   0.18149     0.17552    -0.02900     0.01181     0.39722    -0.08744
 PX  C   9   0.02506    -0.00006     0.06858    -0.00471    -0.00835    -0.08261
 PY  C   9  -0.00297    -0.01353     0.04538    -0.02370     0.04425     0.14497
 PZ  C   9  -0.22701     0.25632     0.01269    -0.01054    -0.05268    -0.02893
  
  S  C  10  -0.19085    -0.18223     0.03445    -0.03278    -0.12325     0.38107
 PX  C  10   0.00079     0.00820    -0.07836     0.00470     0.07829     0.03081
 PY  C  10  -0.01560    -0.01586    -0.04048     0.01441    -0.15739    -0.03909
 PZ  C  10   0.24152    -0.23416     0.02058     0.02184     0.05463     0.04330
  
  S  C  11   0.14396     0.20590     0.10745     0.01026    -0.06166    -0.29970
 PX  C  11  -0.02322    -0.00743     0.07465    -0.02252    -0.07447     0.09748
 PY  C  11   0.04589     0.03199     0.06713    -0.03445    -0.03967     0.01680
 PZ  C  11  -0.14579     0.05285     0.00289     0.12052    -0.05722     0.06425
  
  S  H  12  -0.07027    -0.12200    -0.06774    -0.01062     0.00686     0.16663
  
  S  C  13  -0.16826    -0.17763    -0.11030     0.03387    -0.29140    -0.07946
 PX  C  13  -0.01323    -0.01609    -0.08247     0.03124     0.08200    -0.06281
 PY  C  13   0.02149     0.02756    -0.02591     0.02136     0.06691    -0.03252
 PZ  C  13   0.08367    -0.13698    -0.06329    -0.14226     0.06203     0.00005
  
  S  H  14  -0.10331    -0.08159     0.09739    -0.04536    -0.00888     0.12631
  
  S  H  15   0.06304     0.03728    -0.12869    -0.01719    -0.18108     0.01613
  
  S  H  16  -0.06775    -0.04977     0.14144     0.02098     0.14866    -0.00342
  
  S  H  17   0.07098     0.05455    -0.14367     0.02206    -0.01888     0.16899
  
  S  H  18  -0.05993    -0.02533     0.10728     0.02209     0.04442    -0.13411
  
  S  H  19   0.07206     0.08892    -0.08849     0.00049     0.13677     0.01704
  
  S  H  20   0.09603     0.10231     0.07164    -0.02494     0.16447     0.01238
  
  S  C  21   0.09507     0.17537     0.20736    -0.11786    -0.22363    -0.01690
 PX  C  21  -0.03633    -0.05958    -0.04792    -0.00387     0.01881     0.05638
 PY  C  21   0.01374    -0.00847     0.01721    -0.00057    -0.02251     0.04506
 PZ  C  21   0.20408    -0.12603     0.10777     0.23325    -0.06167     0.05292
  
  S  C  22  -0.04348    -0.11922    -0.14395     0.13307     0.18415    -0.08883
 PX  C  22  -0.02196     0.04572     0.01404    -0.04691     0.00240     0.02255
 PY  C  22   0.00231     0.01345     0.00004     0.01088    -0.02840    -0.08555
 PZ  C  22  -0.28488     0.15513    -0.12451    -0.21741     0.06691    -0.04824
  
  S  C  23   0.03286     0.12044     0.13815    -0.14085    -0.05759     0.22948
 PX  C  23   0.00485    -0.02989    -0.00993     0.00580    -0.05306    -0.02764
 PY  C  23  -0.00611    -0.01671    -0.02005     0.01870     0.04476     0.00995
 PZ  C  23   0.29495    -0.14064     0.13354     0.21780    -0.07651     0.04333
  
  S  C  24  -0.10098    -0.15022    -0.19787     0.08753    -0.01212    -0.24142
 PX  C  24   0.01112     0.03198     0.01347     0.00385     0.04900    -0.01321
 PY  C  24   0.04413     0.04856     0.05588     0.00223     0.01969     0.02284
 PZ  C  24  -0.21352     0.11105    -0.10357    -0.24670     0.08712     0.00261
  
  S  H  25  -0.04979    -0.10577    -0.12870     0.08719     0.12951    -0.01528
  
  S  H  26   0.03373     0.07151     0.09088    -0.07118    -0.12612     0.03837
  
  S  H  27  -0.02021    -0.08034    -0.08770     0.09249     0.02586    -0.15631
  
  S  H  28   0.05665     0.08632     0.12257    -0.05719    -0.01829     0.14138
  
  S  C  29  -0.16213    -0.24125    -0.26459     0.06211     0.17676     0.08490
 PX  C  29   0.01963     0.02005    -0.01331     0.02839     0.07925    -0.02044
 PY  C  29  -0.01585    -0.01927    -0.06508     0.03673    -0.03750    -0.14413
 PZ  C  29  -0.01740     0.05739    -0.05730    -0.27803     0.06519    -0.05892
  
  S  C  30   0.16614     0.22606     0.25887    -0.06676     0.05906     0.16731
 PX  C  30  -0.00534     0.01577     0.06028    -0.03486    -0.13140     0.00063
 PY  C  30  -0.02188    -0.04064    -0.03132    -0.00571     0.05946     0.09717
 PZ  C  30   0.04385    -0.01289     0.08372     0.29168    -0.10038     0.00121




    ROOT NO.   55          56          57          58          59          60

             3.47925     3.65064     3.72518     3.82533     4.14753     4.26370
  
  
  S  C   1  -0.06687     0.19483     0.37574    -0.01731     0.05801     0.05394
 PX  C   1   0.02358    -0.02985    -0.03541     0.11708     0.05125     0.10465
 PY  C   1  -0.01121     0.02659     0.01490    -0.10062    -0.04584    -0.04939
 PZ  C   1  -0.11334    -0.05107    -0.02727     0.00084     0.00026    -0.01685
  
  S  C   2   0.02088    -0.06555    -0.15266    -0.22298    -0.13587    -0.24691
 PX  C   2  -0.04211     0.08187     0.16285    -0.08523    -0.00146    -0.01724
 PY  C   2  -0.03541     0.02868     0.08177    -0.04144     0.02079     0.05258
 PZ  C   2   0.14227     0.07089     0.04312     0.00654     0.00616     0.04913
  
  S  C   3   0.08395    -0.08090    -0.21451     0.26562     0.04780    -0.00711
 PX  C   3   0.06294    -0.01576     0.01210     0.00992    -0.02983    -0.17946
 PY  C   3   0.01067    -0.05586    -0.16261    -0.08781    -0.05949    -0.04482
 PZ  C   3  -0.24725    -0.10719    -0.02981    -0.00832     0.00524    -0.07370
  
  S  C   4  -0.00410     0.10312     0.32182     0.02633     0.02824    -0.08117
 PX  C   4  -0.01448     0.05607     0.01703    -0.13614    -0.07630    -0.14594
 PY  C   4   0.05201     0.01062    -0.05525     0.12237     0.00615    -0.11693
 PZ  C   4   0.23999     0.10617     0.06534    -0.00884    -0.00670     0.05505
  
  S  C   5  -0.04222     0.04649    -0.09809    -0.27481    -0.15054    -0.23465
 PX  C   5   0.02188    -0.07387    -0.16496     0.06704     0.02805     0.07775
 PY  C   5   0.03323    -0.03036    -0.07211     0.02101    -0.01028    -0.01899
 PZ  C   5  -0.13213    -0.06297    -0.03504     0.02921     0.00857    -0.02707
  
  S  C   6   0.10278    -0.16179    -0.23286     0.27338     0.08277     0.11573
 PX  C   6  -0.00098    -0.02149    -0.01825     0.01176     0.00299     0.01783
 PY  C   6  -0.01659     0.04413     0.14153     0.07941     0.06761     0.09530
 PZ  C   6   0.09735     0.06212     0.05410    -0.02837    -0.00418     0.01921
  
  S  C   7  -0.15931     0.07680     0.04472    -0.14945     0.01071     0.33762
 PX  C   7  -0.00814    -0.01264    -0.10292     0.11385     0.04235     0.05480
 PY  C   7   0.01961     0.02290    -0.05396     0.06491     0.02632    -0.06049
 PZ  C   7   0.21443     0.11610     0.01556    -0.02246    -0.02198     0.10186
  
  S  C   8  -0.07843    -0.14620    -0.05164    -0.08828     0.04386     0.35406
 PX  C   8   0.01046     0.00466     0.15711    -0.00384     0.03408    -0.02507
 PY  C   8  -0.02379     0.01163     0.08528     0.00351     0.02282     0.03394
 PZ  C   8  -0.22217    -0.07675    -0.00760     0.01701     0.01476    -0.09004
  
  S  C   9   0.02493     0.08344    -0.22663     0.08330    -0.12077    -0.06144
 PX  C   9  -0.04050    -0.06098    -0.07865    -0.04535    -0.01253     0.16432
 PY  C   9   0.02125    -0.07865     0.02425    -0.07340    -0.14243     0.01504
 PZ  C   9   0.30978     0.13203    -0.01267    -0.01984    -0.04413     0.07609
  
  S  C  10   0.05662    -0.09780     0.18873    -0.09789    -0.11608    -0.08938
 PX  C  10  -0.02248     0.04401    -0.04043    -0.07524    -0.13756     0.08699
 PY  C  10  -0.04783    -0.00588     0.09112    -0.07895     0.05967     0.12984
 PZ  C  10  -0.30141    -0.15409     0.00862     0.02137     0.04143    -0.07614
  
  S  C  11   0.07143    -0.02882     0.00053     0.15159     0.31676    -0.11831
 PX  C  11   0.03656    -0.07811     0.11125     0.01323     0.01049    -0.06257
 PY  C  11  -0.01814    -0.08486     0.06702     0.01304    -0.06125    -0.00025
 PZ  C  11   0.19816     0.11795    -0.00058    -0.05030    -0.10759     0.07107
  
  S  H  12  -0.08399     0.01330     0.01614    -0.09183    -0.27972     0.13061
  
  S  C  13  -0.04349     0.15508     0.10281     0.11339     0.30121    -0.15248
 PX  C  13  -0.01688     0.09072    -0.07175     0.08413    -0.09004     0.01200
 PY  C  13   0.01182     0.05887    -0.04228     0.05809     0.04683    -0.05432
 PZ  C  13  -0.23216    -0.09718     0.00798     0.01615     0.04461    -0.04568
  
  S  H  14   0.11870    -0.04811    -0.04384     0.09782     0.01318    -0.30838
  
  S  H  15   0.03295    -0.12925    -0.24675    -0.00100    -0.03708    -0.00001
  
  S  H  16  -0.03033     0.03915     0.09494     0.13404     0.10198     0.22921
  
  S  H  17   0.01490    -0.04247     0.05876     0.17911     0.11686     0.22091
  
  S  H  18  -0.07188     0.09239     0.14086    -0.17185    -0.04633    -0.03965
  
  S  H  19   0.05726     0.11110     0.02825     0.04553    -0.02017    -0.30041
  
  S  H  20   0.01189    -0.12748    -0.06273    -0.06336    -0.27991     0.16593
  
  S  C  21  -0.11706     0.01542     0.14159     0.25992    -0.28223    -0.02539
 PX  C  21  -0.06424     0.13950    -0.07670     0.01841    -0.06160     0.00849
 PY  C  21  -0.04327     0.12128    -0.06313    -0.00416     0.03250     0.00426
 PZ  C  21   0.12660     0.07976    -0.00876    -0.01480    -0.04366     0.01994
  
  S  C  22   0.22235    -0.31723     0.07658    -0.16995     0.10154     0.01492
 PX  C  22  -0.02504    -0.00385    -0.00653    -0.02120    -0.00731     0.01282
 PY  C  22   0.03576    -0.11232     0.10219     0.09642    -0.10330    -0.01924
 PZ  C  22  -0.08602    -0.08383     0.01452     0.00124     0.03534    -0.01324
  
  S  C  23  -0.19064     0.31979    -0.19359    -0.09139     0.07896     0.03613
 PX  C  23  -0.05416     0.08866    -0.00291     0.11335    -0.12309     0.00632
 PY  C  23   0.03590    -0.04233    -0.01080    -0.07036     0.03970     0.01753
 PZ  C  23   0.08351     0.09784    -0.02441    -0.00832    -0.00473     0.01061
  
  S  C  24   0.01159    -0.04740     0.10605     0.28420    -0.29812    -0.00244
 PX  C  24   0.07753    -0.15919     0.06220    -0.05301     0.02937    -0.01273
 PY  C  24   0.04915    -0.08520     0.04084    -0.01828    -0.05105    -0.00178
 PZ  C  24  -0.12923    -0.08358    -0.00047    -0.02356     0.03270    -0.00996
  
  S  H  25   0.08311     0.00682    -0.10133    -0.16788     0.25511     0.00536
  
  S  H  26  -0.12997     0.20327    -0.04458     0.11712    -0.02705    -0.02436
  
  S  H  27   0.12553    -0.20656     0.13005     0.06054    -0.00700    -0.04032
  
  S  H  28  -0.01191     0.03762    -0.06357    -0.18705     0.26477    -0.01494
  
  S  C  29  -0.06720     0.23131    -0.21159    -0.10144    -0.02430     0.06548
 PX  C  29   0.07175    -0.06266    -0.03979    -0.12156     0.17298     0.00260
 PY  C  29  -0.01315     0.09234    -0.02483     0.12153     0.07977    -0.04336
 PZ  C  29  -0.21280    -0.15511     0.03464     0.03428     0.06505    -0.04524
  
  S  C  30   0.11234    -0.26031     0.06938    -0.21753     0.02868     0.02846
 PX  C  30  -0.01352    -0.00441     0.06173     0.00350     0.16618    -0.06669
 PY  C  30  -0.03193     0.09459    -0.10933    -0.12945     0.08660     0.03154
 PZ  C  30   0.22523     0.15144    -0.01967     0.00946    -0.03548     0.02750




    ROOT NO.   61          62          63          64          65          66

             5.17607     5.33620     5.49232     5.65311     6.09692     6.38441
  
  
  S  C   1   0.09058    -0.00237    -0.27443     0.07761    -0.04441    -0.01461
 PX  C   1  -0.10170    -0.00381     0.13921    -0.14939     0.10505     0.06902
 PY  C   1   0.00473     0.00901     0.32382     0.05158    -0.01669    -0.01917
 PZ  C   1  -0.00302     0.00074     0.04450    -0.00114     0.00464     0.00361
  
  S  C   2   0.13447     0.00710    -0.15110     0.17851    -0.11711    -0.08027
 PX  C   2   0.08769     0.00033    -0.21658     0.08391    -0.04857    -0.01989
 PY  C   2  -0.02150    -0.00077     0.11408    -0.09890     0.15386     0.18350
 PZ  C   2  -0.01031    -0.00018     0.00586    -0.01576     0.01358     0.01315
  
  S  C   3  -0.07021    -0.00671     0.01412     0.02700    -0.12424    -0.16983
 PX  C   3   0.13884     0.00539     0.02290     0.10140     0.04842     0.09701
 PY  C   3   0.02459     0.00406    -0.10138     0.10319    -0.13738    -0.13206
 PZ  C   3   0.01830    -0.00050    -0.00869     0.00764     0.00716     0.01246
  
  S  C   4   0.05891    -0.00021     0.06376    -0.05221     0.13119     0.12144
 PX  C   4  -0.08868    -0.00526    -0.00620    -0.14635     0.08012     0.05210
 PY  C   4  -0.11306    -0.01166     0.04268    -0.04404    -0.11247    -0.19203
 PZ  C   4   0.01066     0.00197     0.02018     0.00378     0.00998     0.01281
  
  S  C   5  -0.11683    -0.00720    -0.05378    -0.20731     0.12500     0.07765
 PX  C   5  -0.02713    -0.00310    -0.08168     0.05225    -0.11144    -0.10075
 PY  C   5  -0.06907    -0.00868    -0.18349    -0.18848     0.15317     0.12928
 PZ  C   5  -0.00789    -0.00184    -0.02927    -0.02011     0.01483     0.01110
  
  S  C   6  -0.08792    -0.01401    -0.30024    -0.16713     0.08345     0.05753
 PX  C   6   0.03762     0.00868     0.22930     0.12352    -0.08247    -0.06308
 PY  C   6   0.08218     0.00271    -0.08060     0.13467    -0.08952    -0.04962
 PZ  C   6   0.01772     0.00226     0.02993     0.03306    -0.01886    -0.01149
  
  S  C   7  -0.19758    -0.00518    -0.04136    -0.12076    -0.06349    -0.12398
 PX  C   7  -0.07740    -0.00996    -0.04099    -0.00049    -0.09861    -0.15531
 PY  C   7   0.06951    -0.01063     0.01330     0.13492     0.05438     0.26999
 PZ  C   7  -0.04026     0.00060    -0.00526    -0.01789    -0.01820    -0.03132
  
  S  C   8   0.20188     0.01746    -0.05168     0.13246     0.06294     0.15281
 PX  C   8   0.01152    -0.01312     0.00795    -0.11602     0.04135    -0.12774
 PY  C   8   0.07342     0.00558    -0.02071     0.03742     0.09358     0.20919
 PZ  C   8  -0.02669    -0.00510     0.00151    -0.02434    -0.00890    -0.03342
  
  S  C   9  -0.06025     0.01977     0.00471     0.14268    -0.05789     0.15115
 PX  C   9   0.13946     0.01101    -0.02302     0.09562     0.04609     0.12363
 PY  C   9   0.11197     0.03259     0.02195    -0.09331     0.07870    -0.14664
 PZ  C   9   0.01162     0.00691    -0.00106     0.01203     0.00601     0.01108
  
  S  C  10   0.03778     0.02497     0.03737    -0.14456     0.03785    -0.16459
 PX  C  10  -0.17366     0.01289    -0.01408     0.04303    -0.09923     0.07649
[...]
  S   H   18   -0.1222   -0.0882    0.0215   -0.0458   -0.0075    0.0014    0.3269   -0.0545
  S   H   19   -0.0855   -0.2630   -0.2720    0.1960   -0.1153   -0.0104    0.0469    0.2188
  S   H   20    0.2212   -0.1903   -0.2764   -0.1102   -0.0147    0.0385   -0.0087   -0.1963
  S   C   21    0.1290   -0.0334    0.0362    0.0180   -0.0156    0.0656   -0.0002    0.0021
  Px  C   21    0.1330   -0.0483    0.1876    0.1505   -0.2652   -0.0942    0.0051    0.0802
  Py  C   21   -0.1509    0.0531   -0.0576   -0.0460    0.0701    0.2680   -0.0013    0.0352
  Pz  C   21    0.0098   -0.0027    0.0040    0.0026   -0.0010   -0.0194   -0.0001   -0.0062
  S   C   22    0.0609   -0.0167   -0.0388   -0.0275    0.0431   -0.1197   -0.0007   -0.0428
  Px  C   22    0.0748   -0.0229   -0.0366   -0.0287    0.0358    0.5154    0.0034    0.1420
  Py  C   22    0.0825   -0.0159    0.0393    0.0264   -0.0505   -0.0560    0.0002   -0.0123
  Pz  C   22   -0.0137    0.0041   -0.0012   -0.0006    0.0020   -0.0557   -0.0004   -0.0168
  S   C   23   -0.0423    0.0048   -0.0389   -0.0257    0.0412    0.1100    0.0007    0.0077
  Px  C   23   -0.1220    0.0329    0.0094    0.0091   -0.0226   -0.1881   -0.0023    0.0363
  Py  C   23   -0.0120    0.0008   -0.0533   -0.0394    0.0620   -0.4830   -0.0037   -0.0923
  Pz  C   23    0.0085   -0.0037   -0.0054   -0.0033    0.0048    0.0241    0.0002   -0.0035
  S   C   24   -0.1345    0.0383    0.0239    0.0116   -0.0047   -0.0534   -0.0005    0.0460
  Px  C   24    0.0460   -0.0076    0.0408    0.0319   -0.0644   -0.1801   -0.0016    0.0262
  Py  C   24   -0.2165    0.1020    0.1770    0.1488   -0.2671    0.1969    0.0000   -0.1770
  Pz  C   24   -0.0020    0.0032    0.0080    0.0053   -0.0049    0.0255    0.0003   -0.0083
  S   H   25   -0.2222    0.0699   -0.1392   -0.1057    0.1706    0.1550   -0.0027   -0.0136
  S   H   26   -0.0984    0.0281    0.0311    0.0225   -0.0242   -0.3143   -0.0023   -0.0871
  S   H   27    0.0902   -0.0220    0.0353    0.0223   -0.0282    0.3139    0.0027    0.0423
  S   H   28    0.2325   -0.0900   -0.1209   -0.0973    0.1622   -0.1544   -0.0004    0.0980
  S   C   29    0.1596   -0.0598    0.1414    0.1206   -0.2405    0.0012    0.0011    0.0191
  Px  C   29   -0.1076    0.0387    0.0014    0.0181   -0.0873   -0.0769    0.0063    0.0977
  Py  C   29    0.1812   -0.1090   -0.0426   -0.0478    0.1460   -0.0308    0.0004    0.1058
  Pz  C   29   -0.0063   -0.0021   -0.0113   -0.0099    0.0214   -0.0003   -0.0003   -0.0012
  S   C   30   -0.1869    0.0963    0.1260    0.1107   -0.2322   -0.0089    0.0012   -0.0055
  Px  C   30   -0.0982    0.0580   -0.0461   -0.0326    0.0700    0.0660   -0.0018   -0.2367
  Py  C   30    0.1683   -0.0683    0.0445    0.0597   -0.1712    0.0474   -0.0014   -0.0805
  Pz  C   30    0.0130   -0.0055   -0.0145   -0.0117    0.0181    0.0059   -0.0003   -0.0141


   Root No.      73        74        75        76        77        78        79        80

                73 A      74 A      75 A      76 A      77 A      78 A      79 A      80 A   

                 9.357     9.580    10.038    10.676    10.988    11.465    11.735    12.067
  
  S   C    1    0.0136    0.0608    0.0581   -0.0695   -0.0276    0.0300    0.0081    0.0144
  Px  C    1    0.1084    0.2103   -0.0580   -0.1853    0.1899   -0.1084   -0.1441    0.2361
  Py  C    1   -0.0091    0.0814    0.2021   -0.0756   -0.1789    0.1351    0.1078   -0.1144
  Pz  C    1    0.0053    0.0231    0.0226   -0.0208   -0.0117    0.0108    0.0049   -0.0000
  S   C    2   -0.0650   -0.0846    0.0702    0.0305   -0.0929    0.0670    0.0251   -0.0162
  Px  C    2    0.0886    0.2040    0.0168   -0.2168    0.1015   -0.0292   -0.1233    0.2454
  Py  C    2   -0.2068   -0.1995    0.2093   -0.0394   -0.1787    0.1592   -0.0270    0.1201
  Pz  C    2   -0.0091   -0.0039    0.0119   -0.0100   -0.0043    0.0060   -0.0076    0.0171
  S   C    3    0.0032   -0.0340    0.0012    0.0585   -0.0470    0.0273    0.0121   -0.0172
  Px  C    3   -0.1955   -0.1499    0.2703   -0.0287   -0.0023   -0.1709    0.1001   -0.1369
  Py  C    3   -0.0814   -0.0422    0.1391   -0.1081   -0.2229    0.3143   -0.1434    0.3350
  Pz  C    3   -0.0056   -0.0019    0.0114   -0.0068   -0.0029   -0.0002    0.0009    0.0019
  S   C    4   -0.0148   -0.0414   -0.0013    0.0636    0.0187   -0.0315   -0.0144    0.0037
  Px  C    4   -0.0818   -0.1560   -0.2418   -0.0911    0.2167   -0.1229    0.1075   -0.1536
  Py  C    4   -0.0265   -0.1308   -0.1380   -0.0092   -0.1354    0.3365   -0.1466    0.3134
  Pz  C    4   -0.0006   -0.0027    0.0025    0.0074   -0.0038    0.0026   -0.0041    0.0059
  S   C    5   -0.0526   -0.0986   -0.0707    0.0468    0.0772   -0.0662   -0.0185    0.0073
  Px  C    5   -0.0426   -0.0622   -0.1539   -0.1526    0.1377   -0.0633    0.1284   -0.1713
  Py  C    5    0.1927    0.3391    0.1295   -0.2190   -0.1242    0.1377    0.1031   -0.0969
  Pz  C    5    0.0208    0.0373    0.0239   -0.0150   -0.0222    0.0190    0.0041   -0.0006
  S   C    6    0.0456    0.0678   -0.0351   -0.0686    0.0422   -0.0121    0.0015    0.0059
  Px  C    6    0.1870    0.2319   -0.1393   -0.1827    0.1177   -0.0302   -0.0018    0.0234
  Py  C    6    0.0488    0.1551    0.1777   -0.1771   -0.2075    0.1904    0.1944   -0.2166
  Pz  C    6    0.0106    0.0202    0.0092   -0.0195   -0.0124    0.0130    0.0172   -0.0196
  S   C    7    0.0992    0.0372   -0.0866    0.0662   -0.0578    0.0692    0.0223   -0.0004
  Px  C    7   -0.1189   -0.1390    0.1782    0.0454   -0.0543   -0.1052    0.1369   -0.1574
  Py  C    7    0.2588    0.0513   -0.1386    0.1947   -0.1540    0.1024    0.1337   -0.0545
  Pz  C    7   -0.0119   -0.0061    0.0073   -0.0018    0.0015   -0.0046    0.0022   -0.0049
  S   C    8    0.0248    0.0395    0.0629    0.0819    0.0261   -0.0717   -0.0416   -0.0106
  Px  C    8    0.0401   -0.0491   -0.0194    0.2117    0.0759   -0.0070   -0.1985    0.1333
  Py  C    8   -0.1041   -0.1897   -0.1944   -0.1167   -0.0329    0.1856   -0.0020    0.1328
  Pz  C    8    0.0044    0.0023    0.0037    0.0126    0.0053   -0.0058   -0.0096    0.0036
  S   C    9   -0.0059    0.0407    0.0339   -0.0018   -0.0002   -0.0293   -0.0015   -0.0061
  Px  C    9    0.0534   -0.0007    0.0405    0.2703    0.1175   -0.0847   -0.2179    0.1101
  Py  C    9    0.0325    0.0393   -0.1572    0.1419    0.0613    0.1411    0.3961    0.0343
  Pz  C    9    0.0028    0.0018   -0.0031    0.0150    0.0070    0.0011    0.0044    0.0053
  S   C   10   -0.0071    0.0380   -0.0477   -0.0169    0.0039    0.0309    0.0019   -0.0012
  Px  C   10    0.2046    0.0540    0.0503    0.2019   -0.2147   -0.0549   -0.2341   -0.1078
  Py  C   10    0.1247   -0.0293   -0.1354    0.1170   -0.1217    0.1515    0.3785   -0.0795
  Pz  C   10    0.0190    0.0048    0.0005    0.0164   -0.0169   -0.0015   -0.0119   -0.0090
  S   C   11   -0.0999    0.0133   -0.0739   -0.0807    0.0594    0.0632    0.0273   -0.0063
  Px  C   11    0.1338    0.0745   -0.0143    0.1517   -0.1480    0.0093   -0.2197   -0.1163
  Py  C   11   -0.2616    0.0899   -0.1961   -0.1225    0.0610    0.1573   -0.0573   -0.1054
  Pz  C   11   -0.0168    0.0125   -0.0180   -0.0000   -0.0056    0.0122   -0.0173   -0.0153
  S   H   12   -0.1594    0.0203   -0.0913   -0.0870    0.0718    0.0833    0.0361   -0.0235
  S   C   13   -0.0426    0.0325    0.0901   -0.0748   -0.0198   -0.0758   -0.0255    0.0039
  Px  C   13   -0.0932    0.1391    0.1375    0.0538    0.0359   -0.1390    0.1467    0.1226
  Py  C   13    0.0983   -0.0117   -0.1388    0.2223    0.0666    0.0889    0.1515    0.0347
  Pz  C   13   -0.0034    0.0120    0.0078    0.0135    0.0066   -0.0085    0.0174    0.0107
  S   H   14    0.1570    0.0585   -0.1157    0.0732   -0.0619    0.0871    0.0368    0.0205
  S   H   15    0.0342    0.1153    0.0779   -0.1015   -0.0231    0.0309    0.0046    0.0215
  S   H   16   -0.1308   -0.1535    0.1046    0.0317   -0.1207    0.0947    0.0164    0.0016
  S   H   17   -0.1105   -0.1893   -0.1077    0.0702    0.1037   -0.0933   -0.0178   -0.0003
  S   H   18    0.1172    0.1425   -0.0903   -0.1104    0.0741   -0.0216   -0.0004    0.0122
  S   H   19    0.0642    0.0881    0.1009    0.1045    0.0415   -0.1059   -0.0516   -0.0385
  S   H   20   -0.0691    0.0421    0.1041   -0.0824   -0.0300   -0.0891   -0.0344    0.0215
  S   C   21    0.0902   -0.0778    0.0747   -0.0096    0.1068    0.0596    0.0340    0.0257
  Px  C   21   -0.1362    0.0258   -0.1506   -0.2059   -0.1269   -0.1354    0.1013    0.1533
  Py  C   21    0.2680   -0.2474    0.1409   -0.1219    0.1925    0.0766    0.1135    0.1249
  Pz  C   21   -0.0194    0.0218   -0.0090    0.0180   -0.0166   -0.0043   -0.0159   -0.0179
  S   C   22   -0.0481    0.0679    0.0235    0.0834    0.0208    0.0201    0.0066    0.0021
  Px  C   22    0.1264   -0.1768   -0.0736   -0.1865   -0.0529   -0.0410   -0.0238   -0.0190
  Py  C   22    0.1342   -0.1330    0.1595   -0.0747    0.2640    0.1046    0.2164    0.2387
  Pz  C   22   -0.0219    0.0281    0.0026    0.0269   -0.0032    0.0023   -0.0073   -0.0096
  S   C   23   -0.0738    0.0736   -0.0525    0.0663   -0.0529   -0.0153   -0.0012    0.0094
  Px  C   23    0.1836   -0.2079   -0.0052   -0.2485   -0.0975   -0.0751   -0.1792   -0.2171
  Py  C   23    0.1103   -0.0680    0.1817    0.0056    0.2141    0.0886    0.1310    0.1333
  Pz  C   23   -0.0222    0.0241   -0.0032    0.0263    0.0039    0.0040    0.0174    0.0224
  S   C   24    0.0775   -0.0846   -0.0457   -0.0664   -0.0886   -0.0579   -0.0312   -0.0227
  Px  C   24    0.1925   -0.2162    0.0483   -0.2530    0.0051   -0.0118   -0.1600   -0.2162
  Py  C   24   -0.1991    0.1848    0.1602    0.0275    0.2298    0.1447   -0.0385   -0.0897
  Pz  C   24   -0.0283    0.0313    0.0033    0.0311    0.0155    0.0120    0.0173    0.0190
  S   H   25    0.1704   -0.1202    0.1152    0.0147    0.1319    0.0825    0.0194    0.0076
  S   H   26   -0.0815    0.1136    0.0378    0.1158    0.0226    0.0227    0.0055    0.0023
  S   H   27   -0.1057    0.0915   -0.0926    0.0684   -0.0807   -0.0254   -0.0101    0.0001
  S   H   28    0.1554   -0.1524   -0.0667   -0.0820   -0.1157   -0.0801   -0.0233   -0.0125
  S   C   29    0.0077   -0.0377    0.0088   -0.0516    0.0374    0.0120    0.0210    0.0179
  Px  C   29   -0.1828    0.0672   -0.2184   -0.1931   -0.2189   -0.1800    0.0779    0.1331
  Py  C   29   -0.1424    0.0837   -0.1608   -0.0076    0.1523    0.3333   -0.1890   -0.2445
  Pz  C   29   -0.0015    0.0042   -0.0017    0.0065    0.0048    0.0112   -0.0064   -0.0086
  S   C   30    0.0212   -0.0409    0.0075   -0.0651   -0.0174   -0.0146   -0.0216   -0.0196
  Px  C   30   -0.1056    0.1453    0.2263   -0.0160    0.0216   -0.2070    0.1119    0.1129
  Py  C   30   -0.0742    0.0421    0.1201   -0.0326    0.3166    0.3145   -0.1700   -0.2579
  Pz  C   30   -0.0083    0.0110    0.0120    0.0023    0.0013   -0.0117    0.0065    0.0066


   Root No.      81        82        83        84

                81 A      82 A      83 A      84 A   

                12.506    12.694    13.151    14.478
  
  S   C    1    0.0566   -0.0260   -0.0125    0.0373
  Px  C    1    0.1014   -0.2883   -0.1709    0.1111
  Py  C    1    0.0773    0.1244    0.0834    0.0156
  Pz  C    1    0.0149   -0.0019   -0.0001    0.0077
  S   C    2    0.0093    0.0210    0.0140    0.0218
  Px  C    2    0.1435   -0.2984   -0.1720    0.1515
  Py  C    2    0.1025   -0.1095   -0.0467    0.1173
  Pz  C    2    0.0097   -0.0185   -0.0100    0.0112
  S   C    3   -0.0206    0.0085   -0.0071    0.0217
  Px  C    3    0.2043   -0.1863   -0.2397    0.2458
  Py  C    3    0.0544   -0.1607   -0.0048    0.0903
  Pz  C    3    0.0094   -0.0088   -0.0070    0.0086
  S   C    4   -0.0070    0.0010    0.0073    0.0272
  Px  C    4    0.3352    0.1142    0.1133    0.2049
  Py  C    4    0.0962    0.0153    0.1869    0.1026
  Pz  C    4   -0.0075   -0.0030   -0.0012   -0.0013
  S   C    5    0.0115   -0.0202   -0.0118    0.0261
  Px  C    5    0.3265    0.1303    0.1089    0.1646
  Py  C    5    0.1570    0.1229    0.0988    0.0425
  Pz  C    5   -0.0006    0.0050    0.0037   -0.0039
  S   C    6    0.0678   -0.0087    0.0040    0.0359
  Px  C    6    0.1508   -0.0280    0.0043    0.0760
  Py  C    6    0.2023    0.2394    0.1715    0.0506
  Pz  C    6    0.0203    0.0201    0.0142    0.0053
  S   C    7   -0.0657    0.0095    0.0028    0.0162
  Px  C    7    0.1494   -0.1774   -0.2461    0.2707
  Py  C    7   -0.0608   -0.1013   -0.1076    0.1654
  Pz  C    7    0.0047   -0.0039   -0.0069    0.0072
  S   C    8   -0.0415    0.0235    0.0087    0.0193
  Px  C    8    0.1710    0.1565    0.2336    0.2559
  Py  C    8    0.1696    0.0038    0.1186    0.1053
  Pz  C    8    0.0049    0.0071    0.0084    0.0092
  S   C    9   -0.0625   -0.0043    0.0069    0.0029
  Px  C    9    0.1000    0.1591    0.2345    0.2647
  Py  C    9   -0.1218   -0.2381    0.1397    0.1339
  Pz  C    9   -0.0018   -0.0014    0.0151    0.0156
  S   C   10   -0.0615    0.0289    0.0055   -0.0077
  Px  C   10    0.0057    0.1339   -0.2230    0.2926
  Py  C   10   -0.0597   -0.2653   -0.1203    0.1511
  Pz  C   10   -0.0032    0.0080   -0.0173    0.0226
  S   C   11   -0.0624    0.0112    0.0007   -0.0154
  Px  C   11   -0.0650    0.1648   -0.2178    0.2795
  Py  C   11   -0.1670    0.0849   -0.1264    0.1302
  Pz  C   11   -0.0148    0.0142   -0.0214    0.0263
  S   H   12   -0.0530   -0.0123   -0.0048   -0.0101
  S   C   13   -0.0565    0.0153    0.0183   -0.0041
  Px  C   13   -0.2003   -0.0606    0.2933    0.2506
  Py  C   13   -0.0180   -0.0966    0.1318    0.1516
  Pz  C   13   -0.0180   -0.0082    0.0280    0.0258
  S   H   14   -0.0598   -0.0133    0.0113    0.0078
  S   H   15    0.0690   -0.0297   -0.0116    0.0384
  S   H   16    0.0108    0.0231    0.0235    0.0135
  S   H   17    0.0018   -0.0273   -0.0240    0.0157
  S   H   18    0.0855   -0.0176    0.0001    0.0402
  S   H   19   -0.0313    0.0397   -0.0043    0.0089
  S   H   20   -0.0343    0.0315    0.0165   -0.0025
  S   C   21    0.0063    0.0269   -0.0255   -0.0227
  Px  C   21   -0.2223    0.2339   -0.1096    0.1810
  Py  C   21   -0.0982    0.1849   -0.1254    0.0598
  Pz  C   21    0.0169   -0.0254    0.0152   -0.0113
  S   C   22    0.0608   -0.0240    0.0030   -0.0389
  Px  C   22   -0.1218    0.0308    0.0079    0.0735
  Py  C   22   -0.1087    0.3043   -0.2141    0.0770
  Pz  C   22    0.0191   -0.0182    0.0092   -0.0118
  S   C   23    0.0669   -0.0053   -0.0205   -0.0395
  Px  C   23   -0.1771   -0.1927    0.2185    0.0924
  Py  C   23   -0.0402    0.1515   -0.1050    0.0303
  Pz  C   23    0.0204    0.0189   -0.0222   -0.0109
  S   C   24    0.0067   -0.0281    0.0181   -0.0229
  Px  C   24   -0.2265   -0.1745    0.2193    0.1328
  Py  C   24   -0.1473   -0.0358    0.0743    0.1169
  Pz  C   24    0.0162    0.0161   -0.0183   -0.0067
  S   H   25    0.0211    0.0143   -0.0261   -0.0218
  S   H   26    0.0728   -0.0252   -0.0006   -0.0405
  S   H   27    0.0682   -0.0174   -0.0100   -0.0373
  S   H   28    0.0060   -0.0295    0.0275   -0.0144
  S   C   29   -0.0107    0.0073    0.0075   -0.0274
  Px  C   29   -0.2271    0.2200   -0.1050    0.2162
  Py  C   29   -0.1225    0.0607   -0.1902    0.1365
  Pz  C   29   -0.0003    0.0001   -0.0063    0.0048
  S   C   30   -0.0051   -0.0010   -0.0171   -0.0307
  Px  C   30   -0.2322   -0.0495    0.2919    0.2255
  Py  C   30   -0.1495   -0.0878    0.0347    0.1033
  Pz  C   30   -0.0137   -0.0040    0.0195    0.0158


              NET ATOMIC CHARGES AND DIPOLE CONTRIBUTIONS

  ATOM NO.   TYPE          CHARGE      No. of ELECS.   s-Pop       p-Pop       
    1          C          -0.027490        4.0275     1.10118     2.92631
    2          C          -0.024822        4.0248     1.09752     2.92731
    3          C           0.011530        3.9885     1.07425     2.91422
    4          C           0.003216        3.9968     1.08520     2.91158
    5          C          -0.028321        4.0283     1.10085     2.92747
    6          C          -0.031725        4.0317     1.09575     2.93598
    7          C          -0.033277        4.0333     1.10124     2.93204
    8          C          -0.038862        4.0389     1.10572     2.93314
    9          C           0.010071        3.9899     1.06722     2.92271
   10          C           0.019175        3.9808     1.05986     2.92097
   11          C          -0.041781        4.0418     1.10744     2.93434
   12          H           0.020207        0.9798     0.97979
   13          C          -0.029048        4.0290     1.10676     2.92228
   14          H           0.017183        0.9828     0.98282
   15          H           0.022357        0.9776     0.97764
   16          H           0.023687        0.9763     0.97631
   17          H           0.029506        0.9705     0.97049
   18          H           0.032499        0.9675     0.96750
   19          H           0.027817        0.9722     0.97218
   20          H           0.015810        0.9842     0.98419
   21          C          -0.023323        4.0233     1.09158     2.93174
   22          C          -0.021792        4.0218     1.09748     2.92431
   23          C          -0.028482        4.0285     1.10081     2.92767
   24          C          -0.025098        4.0251     1.09863     2.92647
   25          H           0.031059        0.9689     0.96894
   26          H           0.018390        0.9816     0.98161
   27          H           0.020620        0.9794     0.97938
   28          H           0.029134        0.9709     0.97087
   29          C           0.014055        3.9859     1.07868     2.90726
   30          C           0.007703        3.9923     1.07454     2.91776
 DIPOLE           X         Y         Z       TOTAL
 POINT-CHG.    -0.005     0.110    -0.020     0.112
 HYBRID         0.003     0.249    -0.261     0.361
 SUM           -0.002     0.360    -0.281     0.456


          ATOMIC ORBITAL ELECTRON POPULATIONS

     Atom    s        px        py        pz   
    1  C   1.10118   0.96814   0.95978   0.99839
    2  C   1.09752   0.96975   0.95086   1.00670
    3  C   1.07425   0.96088   0.96897   0.98437
    4  C   1.08520   0.95893   0.97197   0.98068
    5  C   1.10085   0.97029   0.95243   1.00475
    6  C   1.09575   0.95070   0.98877   0.99651
    7  C   1.10124   0.95833   0.95143   1.02228
    8  C   1.10572   0.96928   0.95157   1.01228
    9  C   1.06722   0.96905   0.97043   0.98323
   10  C   1.05986   0.96825   0.97656   0.97616
   11  C   1.10744   0.95828   0.95061   1.02546
   12  H   0.97979
   13  C   1.10676   0.96610   0.94841   1.00777
   14  H   0.98282
   15  H   0.97764
   16  H   0.97631
   17  H   0.97049
   18  H   0.96750
   19  H   0.97218
   20  H   0.98419
   21  C   1.09158   0.96034   0.96453   1.00687
   22  C   1.09748   0.94488   0.98484   0.99460
   23  C   1.10081   0.98312   0.94484   0.99971
   24  C   1.09863   0.98290   0.94736   0.99620
   25  H   0.96894
   26  H   0.98161
   27  H   0.97938
   28  H   0.97087
   29  C   1.07868   0.95921   0.96811   0.97995
   30  C   1.07454   0.97189   0.95860   0.98727

 **********************
 *                    *
 * JOB ENDED NORMALLY *
 *                    *
 **********************



 TOTAL JOB TIME:             1.69 SECONDS

 == MOPAC DONE ==


          MOPAC Job: "./tetraceneTraj/tetracene_767.mop" ended normally on Feb 15, 2023, at 11:27.

rm: cannot remove ./tetraceneTraj/tetracene_767.cim: No such file or directory
rm: cannot remove ./tetraceneTraj/tetracene_767.end: No such file or directory
rm: cannot remove ./tetraceneTraj/tetracene_767.log: No such file or directory
rm: cannot remove ./tetraceneTraj/tetracene_767.temp: No such file or directory
rm: cannot remove ./tetraceneTraj/tetracene_767.ple: No such file or directory
rm: cannot remove ./tetraceneTraj/tetracene_767.sts: No such file or directory
