 *******************************************************************************
 ** Site#:    0         For non-commercial use only    Version 20.173L 64BITS **
 *******************************************************************************
 ** Cite this program as: MOPAC2016, Version: 20.173L, James J. P. Stewart,   **
 ** Stewart Computational Chemistry, web-site: HTTP://OpenMOPAC.net.          **
 *******************************************************************************
 **                                                                           **
 **                                MOPAC2016                                  **
 **                                                                           **
 *******************************************************************************

                              INDO CALCULATION RESULTS

 *******************************************************************************
 *  CALCULATION DONE:                                Wed Feb 15 11:41:59 2023  *
 *  INDO       - The INDO Hamiltonian to be used
 *
 *
 *
 *                 CHARGE ON SYSTEM = 0
 *
 *
 *
 *  C.I.=(N,M) - 3 DOUBLY FILLED LEVELS USED IN A C.I. INVOLVING 6 M.O.'S
 *  T=         - A TIME OF 172800.0 SECONDS REQUESTED
 *  DUMP=N     - RESTART FILE WRITTEN EVERY 7200.0 SECONDS REQUESTED
 *  RELSCF     - DEFAULT SCF CRITERION MULTIPLIED BY 0.0000
 *              (DEFAULT SCF CRITERION = 0.00010)
 *  ALLVEC     - PRINT ALL EIGENVECTORS
 **********
 *  WARNING: Specified print options may not behave as expected with INDO
 **********
 *******************************************************************************
INDO C.I.=(6,3) AllVEC CHARGE=0 RELSCF=0.000001


   ATOM   CHEMICAL          X               Y               Z
  NUMBER   SYMBOL      (ANGSTROMS)     (ANGSTROMS)     (ANGSTROMS)
 
     1       C         18.45182616  *  19.55309421  *  22.33574463  *
     2       C         19.83908225  *  19.50656876  *  22.43469515  *
     3       C         20.68573843  *  20.68679200  *  22.46298093  *
     4       C         19.98131572  *  21.97903143  *  22.50019804  *
     5       C         18.46100375  *  22.03116889  *  22.48605753  *
     6       C         17.76683020  *  20.87474213  *  22.33192127  *
     7       C         22.05570029  *  20.64939217  *  22.43073126  *
     8       C         20.72569616  *  23.17213537  *  22.55640048  *
     9       C         22.12956444  *  23.14910127  *  22.59104560  *
    10       C         22.83791799  *  21.84595587  *  22.53970666  *
    11       C         24.25420630  *  21.78616728  *  22.56006766  *
    12       H         24.74567292  *  20.81545519  *  22.59842924  *
    13       C         22.93965662  *  24.34425504  *  22.64911670  *
    14       H         22.62034725  *  19.75302676  *  22.30297210  *
    15       H         17.81957321  *  18.65580240  *  22.33627482  *
    16       H         20.34509201  *  18.56953365  *  22.48021049  *
    17       H         18.00122705  *  23.05983975  *  22.43881028  *
    18       H         16.69791074  *  20.90427712  *  22.22732619  *
    19       H         20.19913099  *  24.12177882  *  22.43106477  *
    20       H         22.55859719  *  25.33771714  *  22.71296905  *
    21       C         26.52953165  *  23.04753033  *  22.59751627  *
    22       C         27.22613830  *  24.24318415  *  22.45429559  *
    23       C         26.52792985  *  25.48547480  *  22.39929057  *
    24       C         25.13210698  *  25.47782019  *  22.45781637  *
    25       H         27.07852259  *  22.09486445  *  22.53201168  *
    26       H         28.28566432  *  24.25966002  *  22.47889348  *
    27       H         27.12669479  *  26.38154913  *  22.27728912  *
    28       H         24.52177697  *  26.38929922  *  22.32756074  *
    29       C         25.06888592  *  22.93959791  *  22.64777122  *
    30       C         24.38685141  *  24.19919512  *  22.63655455  *
 


          CARTESIAN COORDINATES 

    NO.       ATOM           X           Y           Z

     1         C         18.4518     19.5531     22.3357
     2         C         19.8391     19.5066     22.4347
     3         C         20.6857     20.6868     22.4630
     4         C         19.9813     21.9790     22.5002
     5         C         18.4610     22.0312     22.4861
     6         C         17.7668     20.8747     22.3319
     7         C         22.0557     20.6494     22.4307
     8         C         20.7257     23.1721     22.5564
     9         C         22.1296     23.1491     22.5910
    10         C         22.8379     21.8460     22.5397
    11         C         24.2542     21.7862     22.5601
    12         H         24.7457     20.8155     22.5984
    13         C         22.9397     24.3443     22.6491
    14         H         22.6203     19.7530     22.3030
    15         H         17.8196     18.6558     22.3363
    16         H         20.3451     18.5695     22.4802
    17         H         18.0012     23.0598     22.4388
    18         H         16.6979     20.9043     22.2273
    19         H         20.1991     24.1218     22.4311
    20         H         22.5586     25.3377     22.7130
    21         C         26.5295     23.0475     22.5975
    22         C         27.2261     24.2432     22.4543
    23         C         26.5279     25.4855     22.3993
    24         C         25.1321     25.4778     22.4578
    25         H         27.0785     22.0949     22.5320
    26         H         28.2857     24.2597     22.4789
    27         H         27.1267     26.3815     22.2773
    28         H         24.5218     26.3893     22.3276
    29         C         25.0689     22.9396     22.6478
    30         C         24.3869     24.1992     22.6366

           Empirical Formula: C18 H12  =    30 atoms



      MOLECULAR POINT GROUP   :   C1  


      RHF CALCULATION, NO. OF DOUBLY OCCUPIED LEVELS = 42

 WARNING: INDO only performs single-point calculations
  SCF CRITERION =    0.1000E-09

 Summary of symmetry occupancy in each shell:

 SHELL     
    1   42
    v   42
 TOTAL  84




    ROOT NO.    1           2           3           4           5           6

           -44.65323   -42.89186   -40.30722   -37.09537   -35.80766   -34.00713
  
  
  S  C   1   0.11029    -0.18713    -0.28178    -0.24930    -0.05627     0.10127
 PX  C   1   0.03222    -0.04769    -0.05158    -0.01247    -0.05018     0.08712
 PY  C   1   0.03863    -0.06278    -0.08650    -0.06557     0.02551    -0.04808
 PZ  C   1   0.00371    -0.00605    -0.00825    -0.00570    -0.00233     0.00438
  
  S  C   2   0.15301    -0.22188    -0.24783    -0.11653    -0.18837     0.27819
 PX  C   2   0.00450     0.01471     0.06963     0.10838    -0.05139     0.04439
 PY  C   2   0.05913    -0.07830    -0.06815    -0.00578    -0.01381     0.00989
 PZ  C   2  -0.00052     0.00160     0.00392     0.00495     0.00043    -0.00126
  
  S  C   3   0.28386    -0.29226    -0.10045     0.16486    -0.19008     0.20127
 PX  C   3   0.01635     0.03671     0.14160     0.13699    -0.08037     0.03450
 PY  C   3   0.05793    -0.03047     0.05711     0.09116     0.10537    -0.13055
 PZ  C   3   0.00044     0.00100     0.00365     0.00311     0.00472    -0.00521
  
  S  C   4   0.27059    -0.27911    -0.09992     0.14290     0.18951    -0.18661
 PX  C   4   0.06148    -0.01135     0.12174     0.16157    -0.02591     0.06615
 PY  C   4  -0.02494     0.05322     0.08543     0.05406     0.13021    -0.11703
 PZ  C   4  -0.00100     0.00290     0.00582     0.00482     0.00310    -0.00168
  
  S  C   5   0.13620    -0.20149    -0.23850    -0.14494     0.18530    -0.26980
 PX  C   5   0.04332    -0.04762    -0.01402     0.04950     0.03588    -0.02025
 PY  C   5  -0.03418     0.06260     0.10229     0.09513     0.01904    -0.00820
 PZ  C   5  -0.00385     0.00686     0.01109     0.01075    -0.00417     0.00824
  
  S  C   6   0.10968    -0.18721    -0.28614    -0.26494     0.07871    -0.14239
 PX  C   6   0.04851    -0.07627    -0.09732    -0.05916     0.00971    -0.00879
 PY  C   6   0.00318    -0.00220     0.00516     0.01606     0.05179    -0.08969
 PZ  C   6   0.00416    -0.00680    -0.00932    -0.00661     0.00331    -0.00555
  
  S  C   7   0.26223    -0.15887     0.13004     0.22136    -0.32311     0.14450
 PX  C   7  -0.03455     0.07394     0.05383    -0.07987    -0.01880    -0.08677
 PY  C   7   0.08326    -0.02583     0.08058     0.05934     0.01211    -0.05478
 PZ  C   7   0.00669    -0.00250     0.00602     0.00496    -0.00183    -0.00233
  
  S  C   8   0.24595    -0.14767     0.12318     0.20976     0.34357    -0.17426
 PX  C   8   0.05271     0.01455     0.09221     0.01457     0.01837     0.07345
 PY  C   8  -0.07511     0.07159    -0.00683    -0.09332     0.00882     0.04411
 PZ  C   8  -0.00424     0.00440     0.00060    -0.00508    -0.00511     0.00632
  
  S  C   9   0.32981    -0.02052     0.27747     0.00370     0.25330     0.01270
 PX  C   9   0.01883     0.08977     0.02964    -0.18529    -0.08218     0.06781
 PY  C   9  -0.05811     0.05107    -0.03910    -0.09407     0.11948     0.05868
 PZ  C   9  -0.00467     0.00379    -0.00258    -0.00820     0.00110     0.00328
  
  S  C  10   0.34088    -0.01819     0.28993    -0.00987    -0.20743    -0.04357
 PX  C  10  -0.03210     0.09560    -0.00971    -0.19259    -0.07527    -0.05975
 PY  C  10   0.04122     0.04730     0.03868    -0.09890     0.14809    -0.01112
 PZ  C  10  -0.00069     0.00420     0.00032    -0.00982     0.00724    -0.00241
  
  S  C  11   0.23944     0.13290     0.16435    -0.23908    -0.28757    -0.20967
 PX  C  11  -0.05115     0.02966    -0.08672     0.00041     0.02238    -0.06157
 PY  C  11   0.06684     0.07252     0.01904    -0.10441     0.02323    -0.02740
 PZ  C  11   0.00254     0.00321     0.00174    -0.00809    -0.00151    -0.00523
  
  S  H  12   0.07489     0.03807     0.05069    -0.06615    -0.14946    -0.10423
  
  S  C  13   0.22578     0.13238     0.14405    -0.21531     0.29350     0.24795
 PX  C  13   0.02680     0.07285    -0.03211    -0.07674    -0.02972     0.08055
 PY  C  13  -0.07784    -0.01596    -0.08223     0.06252    -0.00880     0.04719
 PZ  C  13  -0.00491    -0.00241    -0.00230     0.00135    -0.00368    -0.00222
  
  S  H  14   0.08476    -0.04670     0.04356     0.05913    -0.17471     0.07052
  
  S  H  15   0.02782    -0.05024    -0.08450    -0.08874    -0.02292     0.04344
  
  S  H  16   0.05039    -0.07045    -0.07323    -0.02709    -0.10262     0.14577
  
  S  H  17   0.04063    -0.05711    -0.06204    -0.03365     0.09284    -0.12966
  
  S  H  18   0.02888    -0.05246    -0.08954    -0.09839     0.03379    -0.06616
  
  S  H  19   0.07384    -0.04379     0.03291     0.05478     0.16972    -0.08434
  
  S  H  20   0.07065     0.04545     0.03691    -0.06129     0.15044     0.13550
  
  S  C  21   0.14647     0.25550    -0.20414     0.11680    -0.13423    -0.27505
 PX  C  21  -0.04691    -0.05961     0.00729     0.06077     0.02946     0.02559
 PY  C  21   0.03508     0.07722    -0.08953     0.09482     0.02236     0.02262
 PZ  C  21  -0.00396    -0.00794     0.00850    -0.00903     0.00215     0.00587
  
  S  C  22   0.11870     0.24214    -0.25963     0.26620    -0.04461    -0.12702
 PX  C  22  -0.05149    -0.09623     0.08517    -0.05551     0.00350     0.00331
 PY  C  22  -0.00292    -0.00071    -0.00963     0.02876     0.03833     0.08991
 PZ  C  22   0.00326     0.00634    -0.00594     0.00405    -0.00296    -0.00777
  
  S  C  23   0.11616     0.23610    -0.25180     0.25704     0.04810     0.10312
 PX  C  23  -0.02790    -0.04740     0.03202    -0.00030    -0.03579    -0.08555
 PY  C  23  -0.04377    -0.08500     0.08209    -0.06805     0.01528     0.04308
 PZ  C  23   0.00409     0.00788    -0.00724     0.00482     0.00019    -0.00026
  
  S  C  24   0.14594     0.24964    -0.19224     0.10325     0.14573     0.29176
 PX  C  24   0.00531     0.03650    -0.07584     0.11380    -0.03996    -0.05710
 PY  C  24  -0.05760    -0.08964     0.05203     0.00092    -0.01231    -0.01612
 PZ  C  24   0.00370     0.00533    -0.00166    -0.00413     0.00285     0.00365
  
  S  H  25   0.04361     0.07381    -0.05609     0.02886    -0.06926    -0.13815
  
  S  H  26   0.03242     0.07048    -0.08454     0.10299    -0.01990    -0.06076
  
  S  H  27   0.03015     0.06537    -0.07818     0.09538     0.01965     0.04437
  
  S  H  28   0.04558     0.07266    -0.04828     0.01654     0.08074     0.15472
  
  S  C  29   0.25955     0.30349    -0.04231    -0.18699    -0.15869    -0.21451
 PX  C  29  -0.05079     0.00766    -0.12024     0.15603    -0.01617    -0.07124
 PY  C  29   0.03104     0.07368    -0.07859     0.05321     0.08976     0.10763
 PZ  C  29  -0.00845    -0.01070     0.00355     0.00232     0.00566     0.00693
  
  S  C  30   0.26396     0.30850    -0.04502    -0.18133     0.13387     0.21705
 PX  C  30  -0.00409     0.06362    -0.12998     0.12588    -0.07717    -0.08287
 PY  C  30  -0.05272    -0.02555    -0.05956     0.09925     0.09301     0.15656
 PZ  C  30  -0.00706    -0.01084     0.00718    -0.00310    -0.00462    -0.01003




    ROOT NO.    7           8           9          10          11          12

           -31.81885   -31.38271   -28.87228   -28.36289   -27.06556   -26.04305
  
  
  S  C   1  -0.02224     0.31083     0.13528     0.30867    -0.02470     0.19269
 PX  C   1  -0.12757    -0.00001     0.12788    -0.12661    -0.04672     0.05161
 PY  C   1   0.07409    -0.02134    -0.08763    -0.03127     0.08751    -0.05439
 PZ  C   1  -0.00538     0.00397     0.00811    -0.00350    -0.00150     0.00632
  
  S  C   2  -0.25927     0.13163     0.18713    -0.08183    -0.12570    -0.02819
 PX  C   2  -0.03946    -0.13437    -0.10559    -0.15479    -0.02169    -0.21915
 PY  C   2  -0.01670    -0.07612    -0.04403    -0.10901     0.11173    -0.02816
 PZ  C   2  -0.00030    -0.00773    -0.00420    -0.00856     0.00194    -0.00769
  
  S  C   3  -0.17288    -0.16846    -0.08293    -0.15461     0.13327    -0.12849
 PX  C   3   0.08132    -0.00905    -0.16392     0.12822    -0.05175    -0.11276
 PY  C   3   0.06342    -0.06376     0.00695     0.09240     0.16683     0.18333
 PZ  C   3   0.00127    -0.00111     0.00347     0.00251     0.00691     0.00815
  
  S  C   4  -0.06848    -0.25846     0.15009    -0.11242     0.05354     0.22697
 PX  C   4  -0.08587     0.04899     0.00855     0.17031     0.11517    -0.01468
 PY  C   4   0.01523     0.01340     0.09387     0.10107    -0.19581     0.02757
 PZ  C   4  -0.00281     0.00147     0.00593     0.00517    -0.00202     0.00444
  
  S  C   5   0.22498    -0.18362    -0.12331    -0.19082    -0.09553    -0.07577
 PX  C   5  -0.09706    -0.09430     0.16114    -0.09797    -0.01604     0.20792
 PY  C   5  -0.05819    -0.05177     0.08256    -0.02524    -0.11734     0.04470
 PZ  C   5  -0.01518    -0.00040     0.01654    -0.00017    -0.00179     0.01701
  
  S  C   6   0.28111     0.11139    -0.24835     0.17664     0.06710    -0.18303
 PX  C   6  -0.01421    -0.01976     0.05300    -0.08434     0.02246     0.09623
 PY  C   6   0.07578    -0.13426    -0.09940    -0.17308    -0.03330    -0.13847
 PZ  C   6   0.00538    -0.00522    -0.00305    -0.01187     0.00105    -0.00039
  
  S  C   7   0.16284    -0.07634    -0.24510     0.06940    -0.15054    -0.06979
 PX  C   7   0.17494     0.07336     0.05414     0.04462    -0.15663     0.16852
 PY  C   7   0.08222     0.03455     0.00975     0.10290     0.14099     0.15667
 PZ  C   7   0.00505     0.00199     0.00128     0.00586     0.01114     0.00977
  
  S  C   8  -0.14287     0.05432     0.18927     0.15588    -0.20449    -0.05712
 PX  C   8  -0.02580     0.18928    -0.08152     0.08619     0.10239    -0.16572
 PY  C   8  -0.00993     0.09953    -0.02864    -0.03971    -0.16002    -0.15848
 PZ  C   8   0.00077     0.00700    -0.00618    -0.00186     0.00800    -0.00540
  
  S  C   9  -0.06669     0.31947    -0.02152     0.01864     0.10248    -0.16712
 PX  C   9   0.07014     0.00590    -0.06162    -0.19377     0.12239     0.08130
 PY  C   9  -0.10012     0.04435    -0.04365    -0.11390    -0.19744    -0.15062
 PZ  C   9  -0.00331     0.00140    -0.00271    -0.01082    -0.00245    -0.00491
  
  S  C  10   0.28779     0.12538     0.01336     0.02451     0.06118     0.18964
 PX  C  10   0.04531    -0.02478     0.15033    -0.15587    -0.12661     0.03002
 PY  C  10  -0.11540     0.09530     0.06430    -0.07840     0.23241    -0.06792
 PZ  C  10  -0.00803     0.00391     0.00917    -0.00953     0.01191    -0.00529
  
  S  C  11   0.11532    -0.04154     0.26179    -0.08390    -0.17431    -0.01819
 PX  C  11  -0.17949    -0.08399     0.02282     0.06412    -0.03406    -0.18611
 PY  C  11  -0.10229    -0.02515     0.03570    -0.03879     0.20018    -0.07767
 PZ  C  11  -0.00677    -0.00290     0.00816    -0.00388     0.00431    -0.00936
  
  S  H  12   0.06195    -0.02871     0.11182    -0.00548    -0.21377    -0.01975
  
  S  C  13  -0.08214     0.09420    -0.21774    -0.18934    -0.16229     0.01112
 PX  C  13   0.03669    -0.17617    -0.03770    -0.00700     0.07208     0.21086
 PY  C  13   0.02553    -0.11475    -0.04384     0.06984    -0.17303     0.09714
 PZ  C  13  -0.00111    -0.00159    -0.00186    -0.00218    -0.00214     0.00110
  
  S  H  14   0.09369    -0.03302    -0.10588    -0.00207    -0.21033    -0.06443
  
  S  H  15  -0.00418     0.16205     0.06654     0.21107    -0.03842     0.10728
  
  S  H  16  -0.12915     0.06648     0.08451    -0.02930    -0.13568    -0.06619
  
  S  H  17   0.09846    -0.09182    -0.05086    -0.08235    -0.11477    -0.06657
  
  S  H  18   0.14808     0.06451    -0.15724     0.13607     0.02090    -0.15491
  
  S  H  19  -0.06543     0.02135     0.09777     0.03021    -0.22479    -0.06619
  
  S  H  20  -0.03154     0.02002    -0.12240    -0.05504    -0.20494     0.01522
  
  S  C  21  -0.27279     0.08142    -0.24277     0.08753    -0.13365     0.05288
 PX  C  21   0.05798     0.14706    -0.09427    -0.15855    -0.06323     0.18434
 PY  C  21   0.03796     0.06742    -0.04486    -0.04417     0.07990     0.08892
 PZ  C  21   0.00170    -0.01218     0.00949     0.00871     0.00486    -0.01222
  
  S  C  22   0.00651     0.31238    -0.13130    -0.26376    -0.00658     0.17726
 PX  C  22   0.00717     0.04052    -0.01699    -0.11067    -0.04004     0.06948
 PY  C  22   0.15644     0.01667     0.19196    -0.08631     0.08989    -0.12885
 PZ  C  22  -0.01155     0.00236    -0.01754     0.00572    -0.00392     0.01319
  
  S  C  23   0.28239     0.13923     0.27917    -0.14060     0.06730    -0.19869
 PX  C  23  -0.04225     0.13979    -0.05611    -0.18774     0.02891     0.05485
 PY  C  23   0.03878    -0.05164     0.08617     0.01520    -0.03828    -0.08871
 PZ  C  23  -0.00318    -0.00255    -0.00775     0.00800     0.00175     0.00819
  
  S  C  24   0.22739    -0.19707     0.13692     0.17890    -0.10531    -0.01005
 PX  C  24   0.08116     0.09952     0.16429    -0.03023     0.10049    -0.19218
 PY  C  24   0.05206     0.06330     0.08415    -0.06379    -0.05737    -0.08138
 PZ  C  24  -0.00958    -0.01024    -0.01797     0.00798     0.00058     0.01839
  
  S  H  25  -0.13335     0.04759    -0.12183     0.01960    -0.13237     0.03554
  
  S  H  26   0.00827     0.17979    -0.07555    -0.20027    -0.02614     0.13384
  
  S  H  27   0.14446     0.08762     0.16409    -0.12388     0.02533    -0.12872
  
  S  H  28   0.10890    -0.09597     0.05063     0.06519    -0.12347     0.01883
  
  S  C  29  -0.22886    -0.18118     0.07754     0.12453     0.09655    -0.18389
 PX  C  29  -0.09342     0.01907    -0.11811     0.14907    -0.11583    -0.03851
 PY  C  29  -0.01594    -0.04706    -0.11806     0.07497     0.14560     0.08565
 PZ  C  29   0.00351     0.00304    -0.00376    -0.00360     0.00148     0.00331
  
  S  C  30  -0.04940    -0.25045    -0.11267     0.06838     0.08075     0.15504
 PX  C  30  -0.00377    -0.07591     0.08534     0.19707     0.06429    -0.08753
 PY  C  30   0.10459    -0.04540    -0.05856     0.06857    -0.19508     0.12276
 PZ  C  30  -0.00742     0.00956    -0.00349    -0.01129     0.00414    -0.00432




    ROOT NO.   13          14          15          16          17          18

           -25.18023   -24.03580   -22.75740   -21.57860   -20.61877   -19.49369
  
  
  S  C   1   0.01178     0.13519     0.01673    -0.17470    -0.04384    -0.01563
 PX  C   1   0.05280    -0.23103    -0.01408     0.02246     0.22308     0.17375
 PY  C   1  -0.14478    -0.02123     0.20107     0.10944    -0.12110     0.19358
 PZ  C   1   0.00146    -0.01432     0.00075    -0.00188     0.01679     0.01153
  
  S  C   2   0.15378    -0.16451    -0.12920     0.12410     0.11604     0.03112
 PX  C   2   0.03812     0.03453    -0.06733     0.17107    -0.14088    -0.13171
 PY  C   2  -0.18499    -0.01889     0.22458     0.06126    -0.14977     0.07714
 PZ  C   2  -0.00103    -0.00189    -0.00432     0.01103    -0.00046    -0.01217
  
  S  C   3  -0.14437     0.09123     0.02300     0.08516    -0.07334    -0.13594
 PX  C   3   0.11753     0.17021    -0.14217    -0.12651    -0.01233    -0.01597
 PY  C   3  -0.16561     0.06934     0.02214    -0.10675     0.14227    -0.08211
 PZ  C   3  -0.00580    -0.00246    -0.00531     0.00391     0.01319    -0.01471
  
  S  C   4  -0.07630     0.08253     0.02514    -0.09149    -0.05443    -0.14666
 PX  C   4  -0.10003     0.15597    -0.08150     0.16982     0.09604    -0.06796
 PY  C   4   0.22987     0.10037    -0.14312    -0.00500    -0.08477     0.02630
 PZ  C   4   0.00348     0.00377    -0.00743     0.00165     0.00275    -0.00976
  
  S  C   5   0.16379    -0.17120    -0.12407    -0.12811     0.12582     0.00120
 PX  C   5  -0.03745    -0.00111     0.14422    -0.16623    -0.17767    -0.01321
 PY  C   5   0.16361     0.04183    -0.16354    -0.10639    -0.02258    -0.18370
 PZ  C   5  -0.00101     0.00513     0.00463    -0.01308    -0.01124    -0.01000
  
  S  C   6  -0.05759     0.12072     0.00147     0.16520    -0.05209     0.02034
 PX  C   6  -0.06343    -0.14610     0.16985    -0.12528     0.02499     0.23364
 PY  C   6   0.08972    -0.18393    -0.13100     0.06163     0.24516     0.03881
 PZ  C   6  -0.00092    -0.02144     0.00619    -0.00830     0.01967     0.02335
  
  S  C   7   0.11988     0.10558     0.07756    -0.20928    -0.05613     0.13081
 PX  C   7   0.06805    -0.14883     0.16505    -0.05875     0.03997     0.15326
 PY  C   7  -0.08494    -0.08804    -0.06081    -0.00508     0.21620    -0.02292
 PZ  C   7  -0.00777    -0.00729    -0.01069     0.00771     0.02295    -0.01609
  
  S  C   8   0.10309     0.11354     0.05537     0.18773    -0.07680     0.14797
 PX  C   8  -0.11891    -0.15074     0.05836     0.08580     0.19391     0.09347
 PY  C   8   0.05540    -0.06383     0.16689     0.04041    -0.10443     0.13285
 PZ  C   8  -0.00849    -0.00991     0.00126    -0.00326     0.01473    -0.00944
  
  S  C   9  -0.02274    -0.22437    -0.00874     0.00154     0.00400     0.01128
 PX  C   9   0.03483    -0.06014    -0.09551    -0.18951    -0.16710    -0.16672
 PY  C   9  -0.02342     0.06479     0.22693    -0.08380    -0.08082    -0.08277
 PZ  C   9  -0.00299     0.00231     0.00653    -0.01057    -0.00032    -0.01914
  
  S  C  10   0.05412    -0.23138    -0.04407     0.00918     0.00146     0.00254
 PX  C  10   0.01048     0.02951     0.10162     0.16733    -0.18006    -0.13077
 PY  C  10  -0.00986    -0.07546    -0.20112     0.06553    -0.10696    -0.06794
 PZ  C  10  -0.00510    -0.00094    -0.01296     0.01282    -0.00336    -0.01975
  
  S  C  11  -0.16354     0.08764     0.03918     0.21412     0.05388    -0.14487
 PX  C  11  -0.15187     0.16608    -0.05788    -0.05912     0.18500     0.05251
 PY  C  11   0.06386     0.07455    -0.15248    -0.06972    -0.12114     0.12555
 PZ  C  11  -0.00816     0.01258    -0.00921     0.00226     0.00729    -0.00156
  
  S  H  12  -0.16287     0.05079     0.09390     0.12614     0.15614    -0.13619
  
  S  C  13  -0.11684     0.08746     0.08891    -0.19990     0.08078    -0.17563
 PX  C  13   0.05437     0.14949    -0.17137     0.06690     0.00544     0.14104
 PY  C  13  -0.10748     0.09455     0.03056     0.03832     0.22237    -0.01742
 PZ  C  13  -0.00174     0.00877     0.00531    -0.01013     0.01423    -0.01029
  
  S  H  14   0.12795     0.05510     0.13353    -0.11905    -0.13687     0.13702
  
  S  H  15   0.05976     0.16680    -0.09461    -0.16205    -0.04526    -0.20190
  
  S  H  16   0.19775    -0.06364    -0.21768     0.07880     0.10386    -0.07334
  
  S  H  17   0.18894    -0.05987    -0.19708    -0.08082     0.09554    -0.11031
  
  S  H  18   0.01029     0.15543    -0.11415     0.17561    -0.04356    -0.16470
  
  S  H  19   0.12267     0.06966     0.10230     0.08485    -0.16340     0.12374
  
  S  H  20  -0.14355     0.06546     0.09873    -0.09188     0.17878    -0.13830
  
  S  C  21  -0.14891    -0.18712    -0.10462    -0.12630    -0.10873    -0.02657
 PX  C  21  -0.05498    -0.00533    -0.13843     0.14764    -0.20551    -0.00629
 PY  C  21   0.19321    -0.01792     0.15976     0.15262    -0.02184    -0.16530
 PZ  C  21   0.00300     0.00515     0.00600    -0.01292     0.01666     0.01382
  
  S  C  22   0.05387     0.13580     0.00428     0.16286     0.03389     0.00098
 PX  C  22  -0.08343     0.14901    -0.16022     0.06986     0.00047     0.27932
 PY  C  22   0.06108     0.18286     0.10025    -0.06796     0.24005     0.03256
 PZ  C  22   0.00396    -0.01542     0.00150     0.01057    -0.01539    -0.00933
  
  S  C  23  -0.04414     0.08163     0.00451    -0.18023     0.03561    -0.02426
 PX  C  23   0.04454     0.24662     0.01324    -0.04023     0.21868     0.16303
 PY  C  23  -0.15482    -0.00087    -0.17982    -0.15737    -0.11424     0.19762
 PZ  C  23   0.01383    -0.01067     0.01765     0.01933     0.00310    -0.02426
  
  S  C  24  -0.16126    -0.17868    -0.13244     0.12592    -0.13667     0.01751
 PX  C  24   0.04484    -0.07735     0.08138    -0.14994    -0.11458    -0.18333
 PY  C  24  -0.18858    -0.01686    -0.18768    -0.10109    -0.15604     0.08341
 PZ  C  24   0.01975     0.00733     0.02194     0.01663     0.03053    -0.00414
  
  S  H  25  -0.20176    -0.08667    -0.19011    -0.09913    -0.11298     0.08322
  
  S  H  26  -0.02254     0.17001    -0.10333     0.13476     0.02191     0.21008
  
  S  H  27  -0.08715     0.13118    -0.09251    -0.20170     0.03869     0.17954
  
  S  H  28  -0.20239    -0.07141    -0.19739     0.05776    -0.11116     0.12374
  
  S  C  29   0.03670     0.10991     0.01000    -0.10928     0.07920     0.13758
 PX  C  29  -0.09580    -0.17073     0.05943    -0.15602     0.11958    -0.06954
 PY  C  29   0.27663    -0.07152     0.13953    -0.01275    -0.06429     0.05237
 PZ  C  29   0.00352     0.00396     0.00119    -0.00621     0.00420     0.00771
  
  S  C  30   0.17733     0.12814     0.01812     0.08520     0.04453     0.15411
 PX  C  30   0.12279    -0.13459     0.14162     0.10658     0.01800     0.00984
 PY  C  30  -0.15889    -0.07458    -0.02875     0.13492     0.12047    -0.06963
 PZ  C  30   0.00318     0.01394     0.00389    -0.02170     0.00722     0.00169




    ROOT NO.   19          20          21          22          23          24

           -18.52023   -17.21443   -16.94425   -16.65795   -16.31767   -15.21470
  
  
  S  C   1  -0.16126     0.01208    -0.05263     0.08797     0.04256     0.02876
 PX  C   1   0.05325    -0.19001     0.07610     0.01888     0.18085     0.29738
 PY  C   1   0.13371     0.15640    -0.02583    -0.11605     0.17792     0.06999
 PZ  C   1  -0.00076    -0.01253     0.01056    -0.00385     0.00455    -0.04410
  
  S  C   2   0.15238    -0.00746     0.00651    -0.05292     0.00895     0.06563
 PX  C   2   0.12138     0.19425    -0.05369    -0.08627    -0.18440    -0.25897
 PY  C   2  -0.02975     0.07628    -0.20030     0.19087    -0.02064     0.23704
 PZ  C   2   0.01378     0.00819     0.00274    -0.01540    -0.02998    -0.08770
  
  S  C   3  -0.05042    -0.04926    -0.14764     0.16630    -0.04438    -0.00151
 PX  C   3  -0.17922     0.02546    -0.00858    -0.01271     0.25284    -0.15581
 PY  C   3  -0.05232    -0.24535     0.13983     0.00737    -0.04575     0.00049
 PZ  C   3   0.01193    -0.00431     0.00361    -0.01048    -0.03259    -0.09752
  
  S  C   4   0.07392    -0.02150     0.16507    -0.14483    -0.13326     0.00745
 PX  C   4   0.11715    -0.20419     0.06394     0.08200     0.06239     0.17038
 PY  C   4   0.10215     0.15976     0.05366    -0.14716     0.17085     0.03726
 PZ  C   4   0.00831     0.00966     0.01817    -0.02077    -0.02478    -0.07038
  
  S  C   5  -0.18331     0.02616    -0.02704     0.05597    -0.01028    -0.09104
 PX  C   5  -0.00478     0.19609     0.02169    -0.17801    -0.10814    -0.12184
 PY  C   5  -0.09088     0.05737    -0.19555     0.16157    -0.13644     0.28110
 PZ  C   5  -0.00503     0.01651    -0.00013    -0.00921    -0.02262    -0.04579
  
  S  C   6   0.15785     0.01072     0.05675    -0.10092     0.05283    -0.02446
 PX  C   6  -0.18591     0.07909     0.00950     0.00477     0.22206    -0.24848
 PY  C   6  -0.02104    -0.21681     0.11837     0.04317     0.03630    -0.07346
 PZ  C   6  -0.02367    -0.00626     0.01401     0.00108     0.01923    -0.08346
  
  S  C   7  -0.09961    -0.03266     0.05870    -0.04427     0.07698     0.04399
 PX  C   7   0.16283    -0.03921     0.12778    -0.09890    -0.19840     0.16350
 PY  C   7   0.08472    -0.11532    -0.23630     0.07390     0.05235    -0.11040
 PZ  C   7   0.01256    -0.00672    -0.03410     0.00831    -0.00750    -0.10327
  
  S  C   8   0.08587    -0.03217    -0.00605     0.05396     0.08997    -0.01659
 PX  C   8  -0.17999    -0.00675     0.10946     0.04971    -0.17189    -0.09058
 PY  C   8  -0.06888    -0.05416    -0.26763     0.19112     0.02116    -0.10145
 PZ  C   8  -0.01000     0.00515     0.02926    -0.01892    -0.03721    -0.06375
  
  S  C   9  -0.13569     0.17577     0.10984    -0.00353    -0.12153     0.03532
 PX  C   9   0.05156     0.10012    -0.04068    -0.06421     0.06299     0.11968
 PY  C   9  -0.07182    -0.19380     0.12715     0.05764    -0.13950     0.03448
 PZ  C   9  -0.00027    -0.00932     0.02032    -0.01309    -0.02303    -0.06959
  
  S  C  10   0.15244     0.04583    -0.23320    -0.02957    -0.01203    -0.05022
 PX  C  10   0.06380    -0.12886    -0.02757     0.06658    -0.07978    -0.06567
 PY  C  10  -0.06803     0.24659     0.00826    -0.04450     0.07834     0.03541
 PZ  C  10  -0.00318     0.01266     0.00097    -0.00113    -0.00863    -0.08680
  
  S  C  11  -0.09774    -0.00429     0.02665     0.04307     0.06243    -0.04801
 PX  C  11  -0.20834     0.12333     0.15426    -0.04553     0.12780     0.08286
 PY  C  11  -0.05587    -0.11026    -0.16697    -0.20137     0.14641     0.01264
 PZ  C  11  -0.01178    -0.00061     0.00399    -0.00544     0.00080    -0.05631
  
  S  H  12  -0.08229     0.12647     0.21239     0.15849    -0.02966     0.00459
  
  S  C  13   0.09114    -0.06865     0.02302    -0.05662     0.06998     0.03119
 PX  C  13   0.12729     0.11642     0.11679     0.17988     0.16187     0.03626
 PY  C  13   0.10072    -0.07992    -0.25310    -0.16525     0.09981    -0.13235
 PZ  C  13   0.01584    -0.02165    -0.00244    -0.01504     0.00059    -0.06119
  
  S  H  14  -0.04256     0.04779     0.27261    -0.11706    -0.08437     0.18458
  
  S  H  15  -0.19287    -0.00928    -0.04622     0.11708    -0.19209    -0.18441
  
  S  H  16   0.14179     0.02050     0.13870    -0.20888    -0.05438    -0.25936
  
  S  H  17  -0.15416    -0.01052    -0.18265     0.22176    -0.06035     0.22794
  
  S  H  18   0.22827    -0.06255     0.02113    -0.05433    -0.16176     0.21317
  
  S  H  19   0.06039    -0.05964    -0.25851     0.15228     0.14044    -0.03633
  
  S  H  20   0.07945    -0.13667    -0.23049    -0.22392     0.06602    -0.09809
  
  S  C  21   0.15753     0.00652    -0.00270     0.06913     0.01720    -0.00912
 PX  C  21  -0.06314    -0.14759     0.15875     0.15563     0.15704    -0.11624
 PY  C  21  -0.12999    -0.14741    -0.01988    -0.16624     0.07866     0.03980
 PZ  C  21   0.01010     0.00529    -0.01362    -0.00839    -0.04032    -0.02413
  
  S  C  22  -0.15008    -0.00660    -0.02494    -0.11351     0.01997     0.05398
 PX  C  22  -0.12723    -0.04224    -0.02353    -0.03550    -0.25004    -0.03206
 PY  C  22   0.04638     0.24239    -0.07536    -0.00836    -0.03241     0.06990
 PZ  C  22  -0.00700    -0.02383     0.00303    -0.00725    -0.00805    -0.02554
  
  S  C  23   0.15071     0.01394     0.03974     0.09742     0.07804    -0.03329
 PX  C  23   0.12438     0.16206    -0.11392     0.03649    -0.13581     0.01410
 PY  C  23   0.13880    -0.16640     0.03072     0.11799    -0.15424    -0.12251
 PZ  C  23  -0.01933     0.00486     0.00365    -0.01029     0.00931    -0.01710
  
  S  C  24  -0.16811     0.01264     0.00025    -0.06228    -0.03742     0.03428
 PX  C  24   0.05054    -0.16055     0.13750     0.04786     0.18467    -0.04602
 PY  C  24  -0.04093    -0.19429    -0.06822    -0.21352    -0.02571     0.11285
 PZ  C  24   0.01008     0.02790     0.00604     0.03178    -0.01014    -0.05113
  
  S  H  25   0.13877     0.05323     0.08632     0.22690     0.02126    -0.08642
  
  S  H  26  -0.17763    -0.03496    -0.03288    -0.08819    -0.20255    -0.00092
  
  S  H  27   0.22325    -0.03353    -0.01103     0.15037    -0.13376    -0.10098
  
  S  H  28  -0.13103    -0.06163    -0.12437    -0.22137    -0.11459     0.12554
  
  S  C  29  -0.04062    -0.08076    -0.10814    -0.16930    -0.06703     0.03069
 PX  C  29   0.16165     0.20369    -0.09850    -0.02674    -0.12532     0.08999
 PY  C  29   0.11409    -0.14364     0.02888     0.10362    -0.21480    -0.07360
 PZ  C  29   0.01183    -0.01334     0.00348     0.00413    -0.02826    -0.05560
  
  S  C  30   0.04998     0.02542     0.11895     0.21563    -0.06050    -0.07180
 PX  C  30  -0.12492    -0.03865    -0.10105    -0.06610    -0.20773    -0.09608
 PY  C  30  -0.02529     0.29700    -0.01229     0.08066     0.04139     0.00347
 PZ  C  30   0.02430    -0.03142     0.00592    -0.00169    -0.00754    -0.05726




    ROOT NO.   25          26          27          28          29          30

           -15.00362   -14.84721   -14.67505   -14.39102   -13.85156   -13.44512
  
  
  S  C   1  -0.05982    -0.02870     0.00804     0.01135    -0.06112    -0.01683
 PX  C   1   0.05061     0.06810    -0.02414     0.08041    -0.12867    -0.03218
 PY  C   1  -0.15531     0.19508    -0.02387    -0.14283    -0.08206    -0.15525
 PZ  C   1  -0.02180     0.03171     0.00958     0.11879     0.05925    -0.18179
  
  S  C   2  -0.02240     0.07763    -0.02502    -0.03349     0.03248    -0.01262
 PX  C   2  -0.04586    -0.02843     0.00639    -0.11484     0.15189     0.06625
 PY  C   2  -0.18394    -0.03502    -0.05075     0.05887     0.03743     0.06227
 PZ  C   2  -0.03739     0.05493     0.00882     0.13812     0.10125    -0.20355
  
  S  C   3   0.02524    -0.02185     0.03106     0.03348    -0.02486     0.00065
 PX  C   3   0.05474     0.07185     0.09595    -0.02554    -0.24302    -0.11050
 PY  C   3   0.19350    -0.03542     0.01402     0.04406    -0.00333    -0.02073
 PZ  C   3  -0.08023     0.11026     0.00821     0.24041     0.11683    -0.26289
  
  S  C   4   0.06888    -0.02124    -0.02994     0.00889    -0.00792     0.00075
 PX  C   4  -0.04996    -0.08431     0.01530     0.08703    -0.15937    -0.05547
 PY  C   4  -0.15157     0.05049     0.00896    -0.04234    -0.20415    -0.05696
 PZ  C   4  -0.10940     0.08796    -0.00406     0.23080     0.08315    -0.25413
  
  S  C   5  -0.05842    -0.03680     0.00779    -0.01893     0.02230    -0.00920
 PX  C   5   0.07348     0.10517    -0.03750    -0.10297     0.13819     0.04813
 PY  C   5  -0.21081     0.12058    -0.10659    -0.10181     0.06278    -0.07468
 PZ  C   5  -0.05781     0.05050    -0.00369     0.12586     0.07379    -0.19880
  
  S  C   6   0.03704     0.04127     0.01388    -0.01429    -0.03848    -0.02022
 PX  C   6  -0.07683    -0.08371     0.09478    -0.03946    -0.13671    -0.02871
 PY  C   6   0.17963    -0.18165     0.06700     0.15815    -0.04561     0.12641
 PZ  C   6  -0.03102     0.00233     0.02286     0.12089     0.03974    -0.17769
  
  S  C   7   0.03868     0.02867    -0.02277     0.02224     0.02917    -0.01842
 PX  C   7  -0.03754    -0.02398    -0.11459     0.02132     0.27257     0.08023
 PY  C   7   0.12896     0.28027     0.03807    -0.15719     0.14365    -0.03961
 PZ  C   7  -0.07303     0.14839     0.02137     0.20846     0.07056    -0.15720
  
  S  C   8  -0.02529    -0.05578     0.02970     0.05571     0.00584     0.00546
 PX  C   8  -0.19188    -0.14980    -0.07186    -0.08140     0.15581     0.00807
 PY  C   8   0.25229     0.06477     0.05535     0.03940     0.19719     0.09261
 PZ  C   8  -0.12824     0.08002    -0.01448     0.21291     0.04807    -0.14544
  
  S  C   9  -0.02906    -0.00360     0.01306    -0.01203    -0.00564     0.00779
 PX  C   9   0.22363     0.16131     0.07606     0.05154    -0.15523    -0.00058
 PY  C   9   0.15324     0.07989     0.03221     0.01034    -0.06141    -0.16144
 PZ  C   9  -0.12757     0.13264    -0.00317     0.26795     0.00354    -0.02577
  
  S  C  10   0.03235     0.00914    -0.03438     0.00759     0.00638     0.02879
 PX  C  10  -0.02645    -0.25562    -0.00483     0.10655    -0.25690    -0.10073
 PY  C  10  -0.05863    -0.14754     0.02210     0.04127    -0.16354     0.09469
 PZ  C  10  -0.12388     0.13245     0.01803     0.27859    -0.00415    -0.00870
  
  S  C  11  -0.03435    -0.03828     0.02265    -0.02741    -0.04301    -0.02487
 PX  C  11   0.01299     0.20416     0.00865    -0.10833     0.24091     0.07874
 PY  C  11   0.03666    -0.19808    -0.24674     0.09948     0.15097    -0.01090
 PZ  C  11  -0.09307     0.12713     0.01206     0.20625    -0.01313     0.13898
  
  S  H  12  -0.04421     0.21485     0.20693    -0.12519    -0.04810     0.03401
  
  S  C  13  -0.00271     0.06367    -0.00765    -0.01972    -0.02048    -0.00910
 PX  C  13  -0.04587    -0.04672     0.13608     0.04103     0.22687     0.10606
 PY  C  13  -0.22754    -0.14558    -0.17298    -0.08088     0.01040     0.08090
 PZ  C  13  -0.12044     0.10193    -0.01973     0.17900    -0.02037     0.12983
  
  S  H  14  -0.08805    -0.21554    -0.08541     0.10935     0.02229     0.07764
  
  S  H  15   0.05762    -0.19596     0.03319     0.07251     0.10446     0.13457
  
  S  H  16   0.10866     0.05090     0.02788    -0.10502     0.05971    -0.03415
  
  S  H  17  -0.22107     0.04531    -0.06632    -0.05856     0.01241    -0.07986
  
  S  H  18   0.09541     0.09201    -0.07925     0.02157     0.10638     0.03882
  
  S  H  19   0.26379     0.08205     0.08393     0.06640     0.08858     0.08843
  
  S  H  20  -0.16964    -0.07068    -0.17477    -0.07154    -0.08038     0.03603
  
  S  C  21  -0.02630    -0.07241     0.07823     0.03290    -0.01249     0.00862
 PX  C  21  -0.10131    -0.02599    -0.14741    -0.06852     0.13501    -0.00787
 PY  C  21  -0.17894     0.00577     0.33316    -0.09608     0.09686     0.07433
 PZ  C  21  -0.04452     0.09118     0.01039     0.12760    -0.08732     0.24298
  
  S  C  22   0.01611     0.01323     0.04698     0.01316     0.05208     0.00209
 PX  C  22   0.08356     0.21166    -0.20661    -0.05128    -0.20360     0.02228
 PY  C  22   0.19801    -0.06059    -0.14409     0.18233    -0.03636    -0.04018
 PZ  C  22  -0.05966     0.07243     0.01952     0.07763    -0.06023     0.23567
  
  S  C  23  -0.02826    -0.03129    -0.04567    -0.00198     0.03994     0.01543
 PX  C  23  -0.00344    -0.18785     0.23407     0.06046    -0.01015    -0.07025
 PY  C  23  -0.17367     0.06726     0.10285    -0.17182    -0.10112     0.04583
 PZ  C  23  -0.02627     0.07119    -0.03690     0.09875    -0.05382     0.22752
  
  S  C  24   0.08651     0.03826    -0.06041     0.04308    -0.03841    -0.01312
 PX  C  24  -0.04605     0.16612    -0.23073    -0.06732     0.03765     0.09624
 PY  C  24  -0.05835     0.01688     0.27844     0.04696     0.10051     0.03850
 PZ  C  24  -0.05210     0.07077    -0.04731     0.10571    -0.07261     0.23042
  
  S  H  25   0.08283    -0.05146    -0.28873     0.05174    -0.02172    -0.07381
  
  S  H  26   0.08362     0.19791    -0.16379    -0.03890    -0.16725     0.02468
  
  S  H  27  -0.14338    -0.06369     0.16974    -0.11454    -0.06267    -0.01663
  
  S  H  28   0.02046    -0.06514     0.29164     0.07733     0.04258    -0.05151
  
  S  C  29  -0.01018     0.02757    -0.01491     0.00226     0.03293     0.02428
 PX  C  29   0.09181     0.00590     0.17959     0.08169    -0.15843     0.02235
 PY  C  29  -0.08093     0.07889     0.11544    -0.09908    -0.17263    -0.05670
 PZ  C  29  -0.10274     0.14180     0.02032     0.20347    -0.07005     0.28580
  
  S  C  30  -0.02824     0.04429    -0.01208    -0.04753     0.01902     0.00598
 PX  C  30   0.00274     0.01652    -0.15338    -0.05462    -0.22626    -0.07878
 PY  C  30   0.10682    -0.07598    -0.08681     0.09152    -0.04139     0.02262
 PZ  C  30  -0.12298     0.13259     0.00899     0.18523    -0.04732     0.28542




    ROOT NO.   31          32          33          34          35          36

           -13.00869   -12.96470   -12.11316   -11.71340   -11.69280   -11.41193
  
  
  S  C   1  -0.00030     0.01883     0.00193     0.00120     0.01062     0.00205
 PX  C   1  -0.04175    -0.23325    -0.08026    -0.07800    -0.02872     0.10855
 PY  C   1  -0.21806     0.09572     0.16599     0.09679     0.03541     0.05011
 PZ  C   1   0.11927    -0.02429     0.13457     0.02465    -0.29949     0.04912
  
  S  C   2  -0.00073     0.00396    -0.02880    -0.03438    -0.02235    -0.04385
 PX  C   2   0.04772     0.22575     0.02496     0.04190     0.04375    -0.14411
 PY  C   2   0.21942    -0.00655    -0.18914    -0.13884    -0.07207    -0.14352
 PZ  C   2   0.11379    -0.00658     0.13071     0.03862    -0.21602     0.02440
  
  S  C   3   0.02394     0.01326    -0.00372    -0.00382     0.00074     0.01495
 PX  C   3  -0.13080    -0.12432    -0.07067    -0.12570    -0.04064     0.16115
 PY  C   3  -0.16430    -0.03120     0.23907     0.22206     0.08997     0.15105
 PZ  C   3   0.10527    -0.04481     0.06910     0.02089    -0.04535     0.00960
  
  S  C   4  -0.03400    -0.04895     0.01244     0.00612     0.00268    -0.00543
 PX  C   4   0.07372     0.22479     0.15344     0.17118     0.05385    -0.19050
 PY  C   4   0.09431     0.04729    -0.19333    -0.19495    -0.08178    -0.18768
 PZ  C   4   0.10382    -0.05386     0.03680    -0.02829    -0.05656     0.03047
  
  S  C   5  -0.00665     0.02354    -0.01436    -0.03727    -0.01983     0.03139
 PX  C   5  -0.11205    -0.23924    -0.13490    -0.15142    -0.04187     0.18426
 PY  C   5  -0.17424     0.02339     0.11442     0.06092     0.02969     0.07651
 PZ  C   5   0.09650    -0.03802     0.10450    -0.00844    -0.24269     0.07113
  
  S  C   6  -0.02132     0.01058     0.01752     0.01790     0.01033    -0.01562
 PX  C   6   0.01520     0.26442     0.08647     0.09759     0.08458    -0.12645
 PY  C   6   0.21933    -0.05464    -0.15540    -0.07319    -0.00514    -0.09669
 PZ  C   6   0.14116     0.01514     0.13372     0.01962    -0.30470     0.03139
  
  S  C   7  -0.03969    -0.05415    -0.00768    -0.04539    -0.00842    -0.02208
 PX  C   7   0.08684     0.10462     0.06820     0.09816     0.03683    -0.18022
 PY  C   7  -0.07453     0.10517    -0.09128    -0.16794    -0.05279    -0.16651
 PZ  C   7   0.02276    -0.03513    -0.04196    -0.00723     0.13093    -0.03670
  
  S  C   8   0.04473     0.06608    -0.01957    -0.05127     0.01223     0.00358
 PX  C   8  -0.16361     0.01996    -0.02657    -0.16270    -0.00980     0.21437
 PY  C   8  -0.02183    -0.12813     0.09436     0.14633     0.05080     0.17063
 PZ  C   8   0.01267    -0.04850    -0.05161    -0.04339     0.13709     0.01685
  
  S  C   9  -0.01857    -0.07252    -0.00609     0.00894    -0.00780    -0.00000
 PX  C   9   0.13086    -0.07725     0.04860     0.20353    -0.00432    -0.21028
 PY  C   9  -0.19461     0.11269     0.02286    -0.21799    -0.01547    -0.19921
 PZ  C   9  -0.05217    -0.04499    -0.10813     0.01054     0.30155    -0.03152
  
  S  C  10   0.04882     0.00652    -0.00366    -0.00619     0.01642    -0.01017
 PX  C  10  -0.13110     0.06600     0.05251    -0.16072     0.02445     0.17350
 PY  C  10   0.15014    -0.17660     0.04236     0.24646    -0.01026     0.18528
 PZ  C  10  -0.04688    -0.06095    -0.09999     0.05685     0.30621    -0.02156
  
  S  C  11  -0.04481    -0.04998     0.03041    -0.05242    -0.00439     0.01000
 PX  C  11   0.09176    -0.10302    -0.01480     0.12648    -0.02964    -0.17217
 PY  C  11  -0.11266    -0.04802     0.15496    -0.15556     0.05513    -0.13596
 PZ  C  11  -0.09751    -0.02311    -0.05313     0.05315     0.14806    -0.04835
  
  S  H  12   0.11156    -0.02732    -0.13593     0.19556    -0.06438     0.05545
  
  S  C  13   0.05177     0.07967     0.01158    -0.05177     0.01184    -0.02026
 PX  C  13   0.05904     0.14824     0.04462    -0.13327     0.05913     0.25486
 PY  C  13   0.10641    -0.09148    -0.05923     0.13130    -0.02722     0.15922
 PZ  C  13  -0.06671    -0.00853    -0.06601     0.03255     0.13568     0.00585
  
  S  H  14   0.07879    -0.05168     0.11622     0.19315     0.04445     0.05089
  
  S  H  15   0.20066     0.06003    -0.09345    -0.03607    -0.00756    -0.10669
  
  S  H  16  -0.15883     0.10740     0.17551     0.13864     0.06840     0.04422
  
  S  H  17  -0.11324     0.13252     0.16028     0.11813     0.04807     0.00720
  
  S  H  18  -0.03277    -0.25558    -0.09519    -0.09342    -0.05084     0.11943
  
  S  H  19   0.07669    -0.07486     0.09786     0.20689     0.04279     0.05085
  
  S  H  20   0.09078    -0.09101    -0.07343     0.16506    -0.03915     0.04461
  
  S  C  21  -0.03405    -0.00505     0.03658    -0.03865     0.00008     0.02156
 PX  C  21  -0.15525    -0.13133    -0.11332     0.14280    -0.11391    -0.16325
 PY  C  21   0.06384    -0.14879     0.17260    -0.09600     0.06309    -0.06038
 PZ  C  21  -0.09391     0.04499     0.10212    -0.03855    -0.20766    -0.00909
  
  S  C  22   0.00082     0.02650    -0.01175    -0.00198     0.01133    -0.00050
 PX  C  22   0.20496     0.07752     0.07335    -0.06710     0.06767     0.10172
 PY  C  22  -0.12396     0.19974    -0.17077     0.08010    -0.10713     0.06817
 PZ  C  22  -0.08204     0.00911     0.15854    -0.06751    -0.28314    -0.04084
  
  S  C  23  -0.01125     0.00734    -0.01070     0.00238    -0.01500     0.02212
 PX  C  23  -0.21136    -0.13575    -0.04184     0.07265    -0.07747    -0.15213
 PY  C  23   0.12301    -0.21074     0.19739    -0.08642     0.06612    -0.06153
 PZ  C  23  -0.08777     0.04042     0.13286    -0.05878    -0.28876    -0.03025
  
  S  C  24  -0.01455     0.00614     0.02794    -0.01771     0.01095    -0.05217
 PX  C  24   0.19527     0.15250     0.01643    -0.05856     0.03741     0.17939
 PY  C  24  -0.05033     0.21022    -0.17592     0.06658    -0.10705     0.13868
 PZ  C  24  -0.09562    -0.02450     0.13360    -0.04768    -0.19034    -0.06096
  
  S  H  25  -0.13919     0.05318    -0.20229     0.15314    -0.10805    -0.02064
  
  S  H  26   0.19804     0.08812     0.06902    -0.06831     0.06946     0.10420
  
  S  H  27  -0.00415    -0.24741     0.12600    -0.02547     0.04095    -0.12607
  
  S  H  28  -0.13641     0.09021    -0.16452     0.09929    -0.08938     0.00228
  
  S  C  29   0.02545     0.02716     0.01932    -0.02463     0.01594    -0.02094
 PX  C  29   0.13346     0.11399     0.13324    -0.15769     0.10383     0.17240
 PY  C  29   0.03094     0.06653    -0.23579     0.19309    -0.10203     0.13607
 PZ  C  29  -0.14202     0.03101     0.00386     0.03345    -0.05577    -0.01920
  
  S  C  30  -0.01972    -0.02043    -0.03268     0.01469    -0.01376     0.01837
 PX  C  30  -0.06264    -0.21572    -0.05413     0.17362    -0.06466    -0.22435
 PY  C  30  -0.02460    -0.15289     0.25926    -0.17386     0.11199    -0.13476
 PZ  C  30  -0.12151     0.03996    -0.00200     0.01997    -0.05668     0.01258




    ROOT NO.   37          38          39          40          41          42

           -10.57489    -9.97568    -9.48719    -8.31801    -8.11882    -6.76517
  
  
  S  C   1  -0.00318     0.01391     0.00463    -0.00528    -0.01497     0.00869
 PX  C   1  -0.01224     0.01296     0.00477    -0.01097    -0.01863     0.01405
 PY  C   1   0.00548    -0.00237     0.00194    -0.00256     0.00110     0.00119
 PZ  C   1  -0.09574    -0.26919    -0.25959     0.19540     0.31543    -0.18871
  
  S  C   2  -0.00027    -0.01300    -0.00363     0.00228     0.00754    -0.00297
 PX  C   2   0.03243    -0.00164     0.03310    -0.02422    -0.00423     0.01167
 PY  C   2  -0.01721    -0.01189    -0.01311     0.00632     0.00465    -0.00174
 PZ  C   2  -0.22352    -0.03274    -0.34460     0.33631     0.10650    -0.20475
  
  S  C   3   0.00678     0.00514    -0.00056     0.00554    -0.00511    -0.00331
 PX  C   3  -0.01460     0.00257    -0.01539     0.00970    -0.00837    -0.00150
 PY  C   3   0.02225     0.01152     0.01597    -0.00702     0.00581    -0.00292
 PZ  C   3  -0.26097     0.29885    -0.13408     0.07375    -0.31428     0.15335
  
  S  C   4  -0.01066    -0.00574    -0.00437    -0.00922     0.00154     0.01060
 PX  C   4   0.01328     0.00264     0.00697    -0.00784    -0.00443     0.00706
 PY  C   4  -0.02846    -0.02873    -0.02639     0.00091     0.01029     0.00904
 PZ  C   4   0.22685     0.19653     0.25826     0.05489    -0.35811    -0.17322
  
  S  C   5   0.01231    -0.01469     0.02071    -0.02511    -0.00815     0.01633
 PX  C   5  -0.02850     0.00042    -0.02282     0.01758     0.01296    -0.01060
 PY  C   5  -0.01362     0.00364    -0.01534     0.01353     0.00972    -0.00920
 PZ  C   5   0.23466    -0.22708     0.28577    -0.33241    -0.08263     0.20258
  
  S  C   6   0.00175     0.00696    -0.00200     0.00795    -0.00262    -0.00697
 PX  C   6  -0.00334     0.05260    -0.00815     0.03399    -0.02359    -0.02376
 PY  C   6  -0.01088     0.03411    -0.00742     0.02193    -0.01822    -0.01349
 PZ  C   6   0.13839    -0.37065     0.10978    -0.26755     0.17177     0.18112
  
  S  C   7  -0.00758    -0.00316    -0.00443     0.00333     0.00099     0.00030
 PX  C   7  -0.00159     0.00406     0.00954    -0.01342     0.00341     0.01321
 PY  C   7   0.06038    -0.04489     0.01336     0.03007     0.01085    -0.04102
 PZ  C   7  -0.35842     0.22500    -0.08505    -0.23375    -0.05014     0.35574
  
  S  C   8   0.01841     0.01008     0.01183     0.01319     0.00244    -0.02433
 PX  C   8  -0.05290    -0.01647    -0.01759    -0.01964     0.00867     0.02079
 PY  C   8   0.03758     0.02274     0.01954     0.00776     0.00356    -0.01096
 PZ  C   8   0.37194     0.17177     0.20439     0.22256     0.01333    -0.35074
  
  S  C   9  -0.00384    -0.00428    -0.01364    -0.00010    -0.00212     0.01419
 PX  C   9   0.02958     0.00820     0.00693     0.00554    -0.01900    -0.00300
 PY  C   9  -0.01085    -0.03791    -0.01301    -0.00648    -0.02144     0.00042
 PZ  C   9   0.30852     0.02269    -0.03661     0.13285     0.39080     0.04097
  
  S  C  10   0.00679    -0.00667     0.00711    -0.00592     0.00412    -0.01213
 PX  C  10  -0.01869    -0.01403    -0.01737     0.00211    -0.01302    -0.00549
 PY  C  10   0.01109     0.03557    -0.00082     0.02101    -0.02664     0.00097
 PZ  C  10  -0.24408    -0.03268     0.05793    -0.29452     0.32768    -0.02530
  
  S  C  11   0.01008     0.00347    -0.01172     0.01546    -0.00411     0.02481
 PX  C  11   0.02985     0.02009     0.00489     0.01199     0.00565     0.02097
 PY  C  11  -0.00067    -0.02073    -0.00687     0.00786    -0.00302     0.01890
 PZ  C  11  -0.29409    -0.28498     0.18647    -0.16773    -0.00038    -0.38550
  
  S  H  12   0.00776     0.02837     0.01234    -0.00217     0.00713    -0.01254
  
  S  C  13  -0.00803    -0.00214     0.00622    -0.00380     0.00377    -0.00638
 PX  C  13  -0.01081     0.01148     0.00281    -0.00567     0.01521    -0.00432
 PY  C  13  -0.03196     0.02890     0.03033    -0.00869     0.00520    -0.02333
 PZ  C  13   0.31739    -0.11393    -0.30687     0.16315     0.05634     0.40181
  
  S  H  14  -0.01295     0.01767     0.00273    -0.00555    -0.00211     0.00410
  
  S  H  15   0.00137     0.00090    -0.00187     0.00675     0.00511    -0.00739
  
  S  H  16   0.02063     0.00501     0.01273    -0.00351     0.00133    -0.00197
  
  S  H  17  -0.00274     0.00658    -0.00807     0.01167     0.00592    -0.00996
  
  S  H  18  -0.01105    -0.01430    -0.00557    -0.00369     0.00906     0.00302
  
  S  H  19   0.02780     0.01887     0.01146    -0.00126    -0.00112     0.00875
  
  S  H  20  -0.00812     0.02077     0.01203    -0.00005     0.00383    -0.00197
  
  S  C  21  -0.01060     0.00451     0.02028     0.01973     0.01009     0.01645
 PX  C  21  -0.00903     0.00596     0.03980     0.03546     0.00004     0.02037
 PY  C  21  -0.00246    -0.01361     0.00880     0.01339    -0.00243     0.00806
 PZ  C  21  -0.15052     0.03822     0.35854     0.35612     0.06387     0.24494
  
  S  C  22   0.00638    -0.01556    -0.01788    -0.01036    -0.01831    -0.01165
 PX  C  22  -0.00699     0.00093     0.00330     0.00090     0.00772     0.00273
 PY  C  22  -0.00584     0.04269     0.02543     0.01414     0.02921     0.01987
 PZ  C  22  -0.06288     0.29903     0.26377     0.14476     0.28912     0.18090
  
  S  C  23  -0.00694     0.01154     0.00986    -0.00163     0.00718    -0.00406
 PX  C  23   0.02038     0.02167    -0.01212    -0.01230     0.01017    -0.00327
 PY  C  23   0.00635     0.01366    -0.01051    -0.02452     0.01289    -0.01882
 PZ  C  23   0.07587     0.37088    -0.08944    -0.29132     0.18909    -0.19996
  
  S  C  24   0.00789    -0.01187    -0.00997     0.00106    -0.00742     0.00194
 PX  C  24  -0.01350     0.01134    -0.00038    -0.01456    -0.00101    -0.01287
 PY  C  24   0.02770     0.05695    -0.05303    -0.06174    -0.00643    -0.03516
 PZ  C  24   0.15715     0.17716    -0.31833    -0.34887    -0.09425    -0.23573
  
  S  H  25   0.00172     0.01881     0.00297    -0.00525     0.00452    -0.00403
  
  S  H  26  -0.00529     0.00004     0.00047    -0.00072     0.00799     0.00302
  
  S  H  27   0.00495    -0.01451    -0.00094     0.00577    -0.00169     0.00471
  
  S  H  28   0.01529     0.02191    -0.01045    -0.00571     0.00644     0.00426
  
  S  C  29  -0.01198    -0.01941     0.00547    -0.00498    -0.01465    -0.01880
 PX  C  29  -0.00090    -0.00923    -0.01727    -0.00881    -0.00213    -0.00546
 PY  C  29   0.00620     0.05106    -0.00009    -0.01520     0.02150    -0.00657
 PZ  C  29  -0.17764    -0.32588     0.15469     0.15936    -0.31385    -0.12463
  
  S  C  30   0.01038    -0.00402    -0.01327     0.00296    -0.00943     0.01065
 PX  C  30   0.01788    -0.01324    -0.01340     0.00775    -0.02291     0.01101
 PY  C  30   0.01198    -0.06172    -0.02627     0.01856    -0.03822     0.01887
 PZ  C  30   0.16889    -0.19251    -0.32555     0.01879    -0.34604     0.13194




    ROOT NO.   43          44          45          46          47          48

            -0.98401     0.27068     0.34149     1.17949     1.45117     1.80014
  
  
  S  C   1   0.00830     0.02069     0.00109    -0.01247     0.02209     0.00908
 PX  C   1   0.00827     0.01827     0.00123    -0.00925     0.01581     0.00413
 PY  C   1  -0.00179    -0.00016    -0.00138    -0.00023    -0.00040     0.00271
 PZ  C   1  -0.20607    -0.35046    -0.12908     0.21840    -0.28861    -0.07514
  
  S  C   2   0.00424    -0.00325     0.00778     0.00553    -0.00658    -0.01470
 PX  C   2  -0.01043    -0.01003    -0.01459     0.01866    -0.00095    -0.01463
 PY  C   2   0.00689     0.00263     0.00902    -0.00281    -0.00076    -0.00245
 PZ  C   2   0.21901     0.19695     0.30970    -0.32887     0.06361     0.20859
  
  S  C   3  -0.00043     0.00792    -0.00574    -0.00754     0.00605     0.01503
 PX  C   3   0.00586     0.00590    -0.00287     0.00442     0.00455    -0.01366
 PY  C   3  -0.01165    -0.00911     0.00227    -0.00986    -0.01089     0.02011
 PZ  C   3   0.15799     0.28047    -0.15110     0.16781     0.28390    -0.25392
  
  S  C   4  -0.00942    -0.00760    -0.01363     0.01780     0.00666    -0.03798
 PX  C   4   0.00357     0.00508     0.01334    -0.01508    -0.01239     0.01010
 PY  C   4   0.00624     0.01689     0.00404    -0.00652     0.00737    -0.00868
 PZ  C   4   0.17251    -0.35771     0.11483     0.25030    -0.21254    -0.24428
  
  S  C   5   0.02504     0.02370     0.03463    -0.03571    -0.01934     0.04090
 PX  C   5  -0.00897    -0.00591    -0.01680     0.01775     0.01243    -0.01010
 PY  C   5  -0.01000    -0.00799    -0.01164     0.00994     0.00388    -0.00598
 PZ  C   5   0.20574     0.14609     0.30697    -0.28116    -0.22181     0.23742
  
  S  C   6  -0.00471    -0.01533    -0.00666     0.01601    -0.00644    -0.02016
 PX  C   6   0.01518    -0.01852     0.02584    -0.00670    -0.03922     0.00853
 PY  C   6   0.01092    -0.00606     0.01350    -0.00443    -0.01146     0.00134
 PZ  C   6  -0.18658     0.11559    -0.30055     0.13071     0.38357    -0.14811
  
  S  C   7   0.00091    -0.00101     0.00183     0.00467    -0.00240     0.00325
 PX  C   7  -0.01081    -0.00093    -0.00509    -0.00185    -0.00394     0.01275
 PY  C   7   0.04096     0.01308     0.02406     0.01782     0.02224    -0.04179
 PZ  C   7  -0.35971    -0.09803    -0.20521    -0.11162    -0.21413     0.35797
  
  S  C   8  -0.01497    -0.00152    -0.01023    -0.01950     0.01090     0.06944
 PX  C   8   0.02279     0.00476     0.00697     0.02171    -0.00806    -0.02098
 PY  C   8  -0.01665    -0.00143    -0.01343    -0.00438     0.01040     0.01182
 PZ  C   8  -0.34460    -0.04699    -0.19836    -0.19883     0.18353     0.36105
  
  S  C   9  -0.00262     0.00182     0.00014     0.00118    -0.00458    -0.03554
 PX  C   9  -0.01007    -0.01139    -0.00164    -0.01110     0.00367     0.02098
 PY  C   9   0.00974    -0.02371     0.00146     0.00015     0.00560     0.00911
 PZ  C   9  -0.03685     0.42276     0.04822    -0.01769    -0.03015    -0.29547
  
  S  C  10  -0.00173    -0.01032    -0.00454    -0.00930     0.00613     0.01579
 PX  C  10   0.01363     0.00935    -0.01476     0.00333     0.00125     0.00569
 PY  C  10  -0.00557     0.01614    -0.02574    -0.00095     0.00202     0.02906
 PZ  C  10  -0.02373    -0.24508     0.37317    -0.05963    -0.02111    -0.26798
  
  S  C  11  -0.01237    -0.00566     0.02088    -0.00544    -0.00109    -0.03263
 PX  C  11  -0.02154    -0.00906     0.01291    -0.00939    -0.00076    -0.00463
 PY  C  11  -0.00609    -0.00972     0.01036    -0.00008     0.00650     0.00006
 PZ  C  11   0.38015    -0.05046    -0.17201     0.19094     0.25425     0.29477
  
  S  H  12   0.00650     0.00739    -0.00933     0.01384     0.00330     0.02974
  
  S  C  13   0.00419     0.00564     0.00201     0.00149    -0.00774     0.00796
 PX  C  13   0.00332     0.01045    -0.00564     0.01103    -0.00854     0.00322
 PY  C  13  -0.02375     0.00941     0.00524    -0.01411     0.00467    -0.02233
 PZ  C  13   0.39621    -0.10618    -0.16335     0.28340    -0.13023     0.30683
  
  S  H  14   0.00179     0.00218     0.00371    -0.00195     0.00367    -0.00553
  
  S  H  15  -0.00358    -0.01432     0.00238     0.00592    -0.01775    -0.00255
  
  S  H  16  -0.00429    -0.00253    -0.00184    -0.00417    -0.00045     0.01200
  
  S  H  17  -0.01455    -0.01749    -0.02061     0.02427     0.00996    -0.02472
  
  S  H  18  -0.00042     0.00586     0.00200    -0.00807     0.00132     0.01343
  
  S  H  19   0.01034     0.00399     0.01038     0.01412    -0.01291    -0.04633
  
  S  H  20  -0.00171     0.00188    -0.00125     0.00651     0.00215     0.00546
  
  S  C  21  -0.00652    -0.00243     0.03008     0.03802     0.01764     0.02176
 PX  C  21  -0.02241     0.01412     0.01772     0.01798    -0.01246     0.00538
 PY  C  21  -0.00500     0.00064     0.00530     0.00340     0.00163     0.00137
 PZ  C  21  -0.22967     0.11827     0.32921     0.36471    -0.04362     0.14666
  
  S  C  22  -0.01271     0.01871    -0.00018     0.00630    -0.02474    -0.00127
 PX  C  22   0.00354    -0.00366     0.00181     0.00177     0.00415     0.00085
 PY  C  22   0.01218    -0.02506     0.00595    -0.00458     0.03230     0.00690
 PZ  C  22   0.20011    -0.29582    -0.10484    -0.26943     0.29941    -0.05740
  
  S  C  23  -0.00025     0.00099    -0.00497    -0.01130    -0.00102    -0.01488
 PX  C  23   0.01419     0.00533    -0.01557     0.00235    -0.01816     0.00544
 PY  C  23   0.01635     0.01544    -0.03054    -0.00992    -0.03944    -0.01002
 PZ  C  23   0.17894     0.14014    -0.30951    -0.09605    -0.37238    -0.08748
  
  S  C  24   0.00089     0.01242     0.00281     0.02699    -0.01147     0.02797
 PX  C  24  -0.01268    -0.00015     0.01468     0.00566     0.01240     0.00024
 PY  C  24  -0.03660     0.00883     0.05208     0.03915     0.03569     0.01563
 PZ  C  24  -0.23473     0.13092     0.32779     0.32823     0.18053     0.16609
  
  S  H  25   0.00840    -0.00552    -0.01649    -0.02457    -0.00154    -0.01252
  
  S  H  26   0.01055    -0.01552    -0.00218    -0.00918     0.01980    -0.00097
  
  S  H  27   0.00541    -0.00398    -0.00259     0.00021     0.00204     0.00666
  
  S  H  28   0.00684    -0.01257    -0.00405    -0.01583     0.00738    -0.01340
  
  S  C  29  -0.00543     0.02679    -0.02497    -0.01248    -0.03378    -0.00439
 PX  C  29   0.00649    -0.00270    -0.00947    -0.01432    -0.00205    -0.01303
 PY  C  29   0.00104     0.00440     0.01045     0.01531     0.00026     0.00506
 PZ  C  29  -0.13709     0.28425    -0.21172    -0.15681    -0.32597    -0.17363
  
  S  C  30  -0.00612    -0.02761     0.00979    -0.02231     0.02781    -0.02197
 PX  C  30  -0.00431    -0.01883     0.00633    -0.01758     0.01214    -0.00705
 PY  C  30  -0.00410    -0.02097    -0.00619    -0.03501     0.00516    -0.02028
 PZ  C  30  -0.13229    -0.32249     0.08252    -0.35079     0.21373    -0.18678




    ROOT NO.   49          50          51          52          53          54

             2.40150     2.49871     2.84793     3.16175     3.34301     3.38335
  
  
  S  C   1   0.00090    -0.13231    -0.17305    -0.19227     0.02613     0.23469
 PX  C   1  -0.00988    -0.02536    -0.00390    -0.01202     0.06248     0.01503
 PY  C   1   0.00593    -0.01996    -0.03463    -0.01931    -0.05093     0.00280
 PZ  C   1   0.32455     0.04824    -0.12411     0.17630    -0.02735     0.07532
  
  S  C   2  -0.02538     0.16456     0.18470     0.16046    -0.10671    -0.20399
 PX  C   2   0.00494     0.01865    -0.00933    -0.01783    -0.03104     0.04552
 PY  C   2  -0.01663     0.05664     0.05286     0.01801    -0.02438    -0.02002
 PZ  C   2  -0.25912    -0.02895     0.12056    -0.21656     0.05050    -0.05962
  
  S  C   3   0.05365    -0.24939    -0.24703    -0.12244     0.09290     0.10918
 PX  C   3  -0.00020     0.00297     0.06395     0.04988     0.09823    -0.01991
 PY  C   3   0.00973    -0.03723    -0.03633     0.01316    -0.09444    -0.09475
 PZ  C   3   0.10267    -0.01322    -0.12284     0.29553    -0.07878     0.07958
  
  S  C   4  -0.06115     0.25060     0.27675     0.07352     0.18907     0.08976
 PX  C   4   0.01498     0.01713    -0.04366    -0.02197    -0.08791     0.03169
 PY  C   4   0.00844    -0.01119    -0.05202    -0.04692     0.05377     0.10662
 PZ  C   4  -0.06226    -0.02609     0.09148    -0.27504     0.05911    -0.08545
  
  S  C   5   0.06803    -0.17997    -0.26308    -0.09524    -0.24111     0.00395
 PX  C   5   0.00328    -0.07496    -0.05599    -0.00766    -0.04528    -0.07056
 PY  C   5  -0.00228    -0.00032     0.00706     0.01594    -0.00678    -0.03190
 PZ  C   5   0.23831     0.09763    -0.05157     0.22021     0.00889     0.06277
  
  S  C   6  -0.02017     0.12606     0.18889     0.14407     0.14250    -0.11194
 PX  C   6   0.02375     0.04534     0.03727     0.04514     0.01549    -0.01354
 PY  C   6  -0.00165     0.01488     0.01068    -0.02904     0.06753     0.08006
 PZ  C   6  -0.32303    -0.08362     0.09501    -0.18810     0.01751    -0.06485
  
  S  C   7  -0.04812     0.23809     0.11055     0.00845    -0.25374    -0.01694
 PX  C   7   0.00655    -0.01068    -0.08573    -0.06814    -0.05960     0.05673
 PY  C   7  -0.01902     0.04831    -0.03135    -0.01984    -0.09444     0.04481
 PZ  C   7   0.09266     0.07523     0.05460    -0.16328     0.05712    -0.04778
  
  S  C   8   0.02940    -0.23516    -0.11675     0.06319    -0.08329    -0.25874
 PX  C   8   0.01189    -0.03411     0.07273     0.05810     0.06280    -0.09789
 PY  C   8  -0.01851     0.03839     0.06268     0.03601     0.04082    -0.00500
 PZ  C   8  -0.15407    -0.00479    -0.02027     0.14222    -0.05364     0.07645
  
  S  C   9  -0.04338     0.28178    -0.01569    -0.16505    -0.06686     0.36342
 PX  C   9  -0.01616     0.01823    -0.07308    -0.02820    -0.07132    -0.01112
 PY  C   9  -0.01259    -0.02924    -0.02498     0.00290     0.15883     0.02305
 PZ  C   9   0.33203     0.09382    -0.02443    -0.02870     0.07120    -0.02456
  
  S  C  10   0.04829    -0.27952     0.03474     0.11586     0.37372    -0.12533
 PX  C  10   0.01693     0.01575     0.07167    -0.00217     0.03599     0.09283
 PY  C  10   0.01951    -0.02180     0.03687     0.05871    -0.04016    -0.12943
 PZ  C  10  -0.29870    -0.13315     0.01995     0.02865    -0.07952    -0.00087
  
  S  C  11  -0.07020     0.23179    -0.15007    -0.06475    -0.28788    -0.08913
 PX  C  11  -0.01317    -0.03759    -0.05330     0.02731     0.09613    -0.09939
 PY  C  11  -0.01961     0.04056    -0.06332     0.00438     0.00708    -0.05856
 PZ  C  11   0.13583     0.10489    -0.07933     0.11277     0.02977     0.05833
  
  S  H  12   0.03828    -0.11991     0.08742     0.04764     0.13954     0.02329
  
  S  C  13   0.05308    -0.23202     0.11672     0.12666    -0.12364    -0.22920
 PX  C  13   0.01335    -0.00452     0.08513    -0.02402    -0.08751     0.09737
 PY  C  13   0.00007     0.05859     0.00592    -0.02410    -0.02104     0.07744
 PZ  C  13  -0.16128    -0.05252     0.06132    -0.10432    -0.02177    -0.03444
  
  S  H  14   0.02415    -0.12776    -0.07380     0.00586     0.10916    -0.02131
  
  S  H  15   0.00100     0.08730     0.11185     0.12622    -0.02479    -0.15869
  
  S  H  16   0.01148    -0.08220    -0.10060    -0.09105     0.03760     0.10321
  
  S  H  17  -0.04321     0.10727     0.17397     0.06983     0.15110    -0.03010
  
  S  H  18   0.01383    -0.07320    -0.10791    -0.07823    -0.08996     0.05478
  
  S  H  19  -0.00734     0.12836     0.06422    -0.04064     0.00816     0.13804
  
  S  H  20  -0.02889     0.12933    -0.06783    -0.07964     0.03876     0.12905
  
  S  C  21  -0.06529     0.16037    -0.21581     0.00035    -0.05063    -0.27246
 PX  C  21   0.00781    -0.06553     0.05249     0.01466     0.05047     0.04217
 PY  C  21  -0.00043     0.00311    -0.01255    -0.00232     0.02514    -0.02588
 PZ  C  21  -0.21843    -0.03027    -0.08566     0.22722     0.02498     0.13190
  
  S  C  22   0.01666    -0.10769     0.15563     0.02966    -0.04970     0.24461
 PX  C  22  -0.01152     0.03262    -0.04136    -0.00401     0.01914    -0.03106
 PY  C  22   0.01681     0.02106    -0.00786    -0.00512    -0.08762    -0.04871
 PZ  C  22   0.32572     0.02628     0.12287    -0.21927    -0.01020    -0.07297
  
  S  C  23  -0.03233     0.10679    -0.16015    -0.04272     0.23907    -0.11858
 PX  C  23  -0.00651    -0.03171     0.02541     0.01967    -0.07031    -0.03316
 PY  C  23  -0.02895    -0.01831     0.01155     0.02170     0.02058     0.06213
 PZ  C  23  -0.32585    -0.03749    -0.10920     0.21579    -0.00493     0.08185
  
  S  C  24   0.04708    -0.15473     0.21041     0.04626    -0.30900     0.05343
 PX  C  24   0.00074     0.02374    -0.01006    -0.00702    -0.00247     0.03552
 PY  C  24   0.01777     0.04936    -0.03187    -0.03697     0.03530    -0.00151
 PZ  C  24   0.22670     0.02397     0.10010    -0.21557     0.00770    -0.09000
  
  S  H  25   0.04197    -0.08317     0.12257    -0.00239    -0.00201     0.14324
  
  S  H  26  -0.00431     0.06613    -0.09158    -0.02078     0.01936    -0.15555
  
  S  H  27   0.02310    -0.06689     0.09887     0.02690    -0.15660     0.06407
  
  S  H  28  -0.02997     0.08452    -0.13198    -0.01867     0.18155    -0.05902
  
  S  C  29   0.08442    -0.23630     0.26909     0.01297     0.07603     0.23018
 PX  C  29  -0.00127     0.02652     0.01015    -0.02228     0.01321     0.08431
 PY  C  29   0.00551    -0.01068     0.04911     0.00873    -0.16774    -0.02095
 PZ  C  29   0.03962    -0.01621     0.09966    -0.27563    -0.03777    -0.15671
  
  S  C  30  -0.07014     0.22104    -0.24872    -0.05348     0.23684    -0.01207
 PX  C  30  -0.00580    -0.01532    -0.05251     0.04027     0.00712    -0.12175
 PY  C  30   0.00134    -0.01595    -0.00225     0.00686     0.12031     0.05149
 PZ  C  30  -0.03582     0.00023    -0.09700     0.26674    -0.01219     0.11095




    ROOT NO.   55          56          57          58          59          60

             3.59669     3.70896     3.85291     3.94776     4.25409     4.35350
  
  
  S  C   1  -0.15800     0.37445    -0.07487     0.02102     0.08203     0.05042
 PX  C   1   0.02433    -0.06924    -0.12371    -0.04526     0.07452     0.06472
 PY  C   1  -0.02481     0.04849     0.09245     0.03180    -0.05067    -0.01866
 PZ  C   1   0.08789     0.08599    -0.02252    -0.00258     0.01266     0.01095
  
  S  C   2   0.04471    -0.09670     0.28111     0.08303    -0.19657    -0.17073
 PX  C   2  -0.06199     0.17756     0.04882     0.03970     0.00057     0.00408
 PY  C   2  -0.03624     0.08387     0.03627     0.02868     0.02228     0.04069
 PZ  C   2  -0.13754    -0.06980     0.00845     0.00296    -0.00312    -0.01130
  
  S  C   3   0.10050    -0.26819    -0.24787    -0.13427     0.06158    -0.04895
 PX  C   3   0.01576     0.00409    -0.01327     0.02269    -0.07524    -0.16957
 PY  C   3   0.03810    -0.14843     0.12543     0.01339    -0.06380    -0.00384
 PZ  C   3   0.25373     0.12190    -0.01223    -0.00328    -0.00022     0.01486
  
  S  C   4  -0.08956     0.31953    -0.07978     0.04352    -0.00649    -0.09972
 PX  C   4  -0.01493     0.03955     0.15497     0.02341    -0.11312    -0.11713
 PY  C   4   0.03668    -0.06428    -0.10173    -0.07390    -0.01094    -0.13355
 PZ  C   4  -0.23840    -0.11746     0.03111     0.01143    -0.00875     0.00582
  
  S  C   5  -0.01260    -0.02758     0.30712     0.04709    -0.19427    -0.16185
 PX  C   5   0.05148    -0.18905    -0.02461    -0.04079     0.04497     0.05013
 PY  C   5   0.03065    -0.08393     0.01809    -0.00946    -0.03628    -0.04346
 PZ  C   5   0.12934     0.06428    -0.07110    -0.01637     0.03615     0.02240
  
  S  C   6   0.14038    -0.30291    -0.21298    -0.09211     0.08774     0.03330
 PX  C   6   0.01669    -0.00242    -0.01008     0.00301     0.00937     0.02751
 PY  C   6  -0.04621     0.13916    -0.10837    -0.00605     0.08724     0.07034
 PZ  C   6  -0.09192    -0.06970     0.02042     0.00321    -0.00439     0.00284
  
  S  C   7  -0.06443     0.11850     0.18111     0.00601     0.09752     0.34980
 PX  C   7   0.02318    -0.09561    -0.07780    -0.07616     0.07258     0.04449
 PY  C   7   0.04017    -0.03290    -0.02966    -0.05816     0.02958    -0.03529
 PZ  C   7  -0.23575    -0.11287     0.01503    -0.00068     0.00312    -0.02360
  
  S  C   8   0.01833    -0.08193     0.04658     0.11049     0.11759     0.38442
 PX  C   8  -0.07186     0.11376    -0.03291     0.05779     0.02775    -0.05742
 PY  C   8  -0.01282     0.09132    -0.01889     0.02904     0.02453     0.05447
 PZ  C   8   0.22584     0.11595    -0.02111    -0.01974    -0.00895    -0.06954
  
  S  C   9   0.10210    -0.14776    -0.00449    -0.17512    -0.11878    -0.02320
 PX  C   9   0.04467    -0.06802     0.03323     0.03355     0.02422     0.19679
 PY  C   9   0.04473     0.00141    -0.00122     0.09272    -0.16485     0.03849
 PZ  C   9  -0.30629    -0.12369     0.01641     0.01117    -0.00353     0.03305
  
  S  C  10  -0.02599     0.10324    -0.02740     0.15951    -0.17669    -0.07806
 PX  C  10   0.00577    -0.00840     0.09399    -0.04883    -0.11385     0.12660
 PY  C  10  -0.06706     0.07018     0.05978     0.06382     0.08355     0.10534
 PZ  C  10   0.31152     0.13125    -0.01542     0.00228    -0.00497     0.01806
  
  S  C  11  -0.00913    -0.02689    -0.12989     0.05530     0.30244    -0.19654
 PX  C  11  -0.01433     0.05333    -0.08535     0.10698    -0.03297    -0.06252
 PY  C  11  -0.01536     0.01423    -0.05581     0.06250    -0.07140     0.01904
 PZ  C  11  -0.24200    -0.09972     0.01260    -0.00813     0.03061    -0.02154
  
  S  H  12  -0.01357     0.03144     0.06971    -0.04035    -0.24736     0.19187
  
  S  C  13  -0.13485     0.12727    -0.01152    -0.14176     0.27529    -0.22864
 PX  C  13   0.00260    -0.01742    -0.02120    -0.16896    -0.03651     0.00380
 PY  C  13  -0.00259    -0.02696    -0.01813    -0.05872     0.01261    -0.04564
 PZ  C  13   0.22632     0.08422    -0.00485     0.00877     0.01221    -0.02620
  
  S  H  14   0.04546    -0.08739    -0.09724    -0.00032    -0.06378    -0.29855
  
  S  H  15   0.10006    -0.24236     0.05514    -0.01026    -0.04447     0.00048
  
  S  H  16  -0.03268     0.05901    -0.15899    -0.04713     0.14740     0.16418
  
  S  H  17   0.00540     0.01103    -0.21891    -0.02845     0.17454     0.18006
  
  S  H  18  -0.08372     0.18182     0.12861     0.05984    -0.03735     0.02026
  
  S  H  19  -0.03133     0.05097    -0.00351    -0.07942    -0.07836    -0.33878
  
  S  H  20   0.08522    -0.08568    -0.00756     0.10091    -0.22177     0.21884
  
  S  C  21  -0.07559     0.11560    -0.24348    -0.11845    -0.28219     0.04020
 PX  C  21   0.00590     0.00832     0.06644    -0.17124    -0.05716     0.03714
 PY  C  21   0.00501     0.01898     0.04004    -0.09507     0.02607    -0.00156
 PZ  C  21  -0.14757    -0.07211     0.04816    -0.00372     0.04004    -0.00360
  
  S  C  22   0.01488    -0.13267     0.02444     0.39401     0.13286    -0.03304
 PX  C  22   0.00062     0.01006     0.00161    -0.01387    -0.01510     0.01032
 PY  C  22  -0.03468     0.01486    -0.14838     0.07265    -0.11239     0.00051
 PZ  C  22   0.12759     0.03527    -0.00801     0.04296     0.00918    -0.00397
  
  S  C  23   0.07065     0.06859     0.24156    -0.34318     0.08071     0.03268
 PX  C  23  -0.03430     0.03065    -0.07697    -0.10608    -0.11312     0.03347
 PY  C  23   0.00543    -0.03396     0.05049     0.06574     0.05725    -0.00007
 PZ  C  23  -0.12300    -0.04023    -0.00066    -0.01562    -0.00964     0.00505
  
  S  C  24  -0.09756     0.00407    -0.28182    -0.01932    -0.25757     0.05301
 PX  C  24   0.00450    -0.03401    -0.04238     0.19093     0.01004    -0.02346
 PY  C  24   0.02626    -0.00815    -0.03937     0.12201    -0.05159    -0.00228
 PZ  C  24   0.14739     0.05273     0.00829     0.00387     0.02644    -0.01452
  
  S  H  25   0.03946    -0.06710     0.14455     0.07707     0.24086    -0.05833
  
  S  H  26  -0.00992     0.08307    -0.01667    -0.24099    -0.05538     0.00358
  
  S  H  27  -0.04810    -0.04029    -0.15475     0.21909    -0.02535    -0.04069
  
  S  H  28   0.05252     0.00555     0.19141     0.00856     0.23050    -0.06371
  
  S  C  29   0.05111    -0.04210     0.22834    -0.25754     0.00189     0.08375
 PX  C  29   0.04425    -0.05647     0.08185     0.13383     0.14851    -0.03031
 PY  C  29  -0.03948     0.01405    -0.05766    -0.11891     0.08963    -0.06949
 PZ  C  29   0.26430     0.11068    -0.05402     0.05408    -0.01080    -0.01302
  
  S  C  30   0.07769    -0.04739     0.03742     0.36348    -0.01502     0.02326
 PX  C  30  -0.04243     0.04101     0.02598    -0.01548     0.15571    -0.10118
 PY  C  30   0.03243    -0.01963     0.16393    -0.06371     0.08392     0.01678
 PZ  C  30  -0.26476    -0.08900     0.00472    -0.06046    -0.02207     0.02574




    ROOT NO.   61          62          63          64          65          66

             5.34874     5.56236     5.62273     5.80235     6.19895     6.51723
  
  
  S  C   1  -0.04119    -0.23499     0.09557    -0.13884     0.07200    -0.02621
 PX  C   1   0.13894     0.06985    -0.07028     0.18228    -0.11605     0.03590
 PY  C   1  -0.07677     0.28505    -0.08092     0.06033    -0.03366     0.02020
 PZ  C   1   0.00539    -0.01602     0.00410    -0.00115    -0.00098     0.00039
  
  S  C   2  -0.19144    -0.07840     0.08604    -0.21313     0.12568    -0.04266
 PX  C   2  -0.05738    -0.16774     0.07663    -0.12213     0.06849    -0.03098
 PY  C   2   0.04088     0.04453    -0.04125     0.13240    -0.14044     0.06934
 PZ  C   2  -0.00327    -0.01035     0.00362    -0.00360     0.00075    -0.00044
  
  S  C   3   0.03382     0.06408    -0.01860    -0.04817     0.10861    -0.05603
 PX  C   3  -0.18558     0.00378     0.03124    -0.05321    -0.09740     0.10573
 PY  C   3  -0.05240    -0.02306     0.04126    -0.14443     0.17944    -0.12442
 PZ  C   3   0.00744     0.00626    -0.00162     0.00014     0.00666    -0.00714
  
  S  C   4  -0.03778    -0.02062    -0.00919     0.10205    -0.19424     0.14012
 PX  C   4   0.11961    -0.03334    -0.02364     0.10215    -0.04717     0.00146
 PY  C   4   0.08839     0.07311    -0.04018    -0.00350     0.13405    -0.10111
 PZ  C   4  -0.00371    -0.00216     0.00042     0.00409    -0.00715     0.00576
  
  S  C   5   0.14875    -0.08605    -0.01754     0.13842    -0.10386     0.03578
 PX  C   5   0.03202    -0.01985     0.01540    -0.09671     0.18052    -0.13170
 PY  C   5   0.15177    -0.23415     0.02866     0.11950    -0.16183     0.09475
 PZ  C   5  -0.01327     0.00254     0.00483    -0.02401     0.02377    -0.01234
  
  S  C   6   0.18544    -0.31388     0.05830     0.03522    -0.03129     0.00313
 PX  C   6  -0.11535     0.26928    -0.05744    -0.02132     0.03841    -0.00944
 PY  C   6  -0.09065    -0.04710     0.04844    -0.13582     0.09639    -0.03670
 PZ  C   6  -0.00663     0.02157    -0.00516    -0.00012     0.00278    -0.00086
  
  S  C   7   0.25944    -0.01467    -0.03443     0.05736     0.11448    -0.11860
 PX  C   7   0.07331     0.00183    -0.00963    -0.03179     0.08779    -0.04959
 PY  C   7  -0.08135     0.01422     0.01576    -0.09430    -0.07972     0.23381
 PZ  C   7  -0.02177    -0.00333     0.00339    -0.01158    -0.01044     0.02467
  
  S  C   8  -0.19717    -0.06784     0.06267    -0.05886    -0.11353     0.11147
 PX  C   8   0.03809    -0.02247    -0.03438     0.08722     0.02899    -0.10818
 PY  C   8  -0.08332    -0.06657     0.03636     0.00786    -0.20204     0.22865
 PZ  C   8   0.03309     0.01089    -0.01182     0.00841     0.02526    -0.02761
  
  S  C   9  -0.01417     0.05272     0.03837    -0.11183    -0.02650     0.13487
 PX  C   9  -0.14827    -0.03817     0.03944    -0.03484    -0.08916     0.09317
 PY  C   9  -0.07467    -0.02564     0.01257     0.12539    -0.02791    -0.21776
 PZ  C   9  -0.02159    -0.00782     0.00462     0.00723    -0.01086    -0.00445
  
  S  C  10  -0.00033    -0.00789    -0.00885     0.13316     0.00470    -0.19379
 PX  C  10   0.15518     0.04811     0.00618    -0.08248     0.07136     0.09181
[...]
  S   H   18    0.0570   -0.0178    0.0180   -0.0647    0.0123    0.3251    0.0075   -0.0208
  S   H   19    0.2084   -0.2466   -0.0666    0.2284    0.1711    0.0596   -0.0083    0.2060
  S   H   20   -0.1228   -0.2477   -0.2003    0.0327    0.2606   -0.0156    0.0842   -0.2275
  S   C   21   -0.1377   -0.0578    0.0339    0.0048   -0.0091   -0.0004    0.0778    0.0362
  Px  C   21   -0.1119   -0.0953    0.3539    0.1248    0.0271    0.0028   -0.0979    0.0230
  Py  C   21    0.1707    0.1000   -0.1234   -0.0461   -0.0076   -0.0017    0.2764    0.1591
  Pz  C   21    0.0203    0.0091   -0.0219   -0.0079   -0.0029   -0.0002   -0.0086   -0.0100
  S   C   22   -0.0953   -0.0325   -0.0801   -0.0236   -0.0001    0.0002   -0.0849   -0.0590
  Px  C   22   -0.0847   -0.0337   -0.0767   -0.0252    0.0019   -0.0006    0.4800    0.2323
  Py  C   22   -0.0978   -0.0392    0.0599    0.0172   -0.0001    0.0004   -0.0251    0.0201
  Pz  C   22   -0.0046   -0.0013   -0.0066   -0.0014    0.0010    0.0000   -0.0092   -0.0072
  S   C   23    0.0559    0.0191   -0.0686   -0.0193    0.0030   -0.0001    0.0957    0.0079
  Px  C   23    0.1290    0.0514    0.0244    0.0108    0.0180   -0.0018   -0.2131    0.0746
  Py  C   23   -0.0165   -0.0054   -0.1026   -0.0293    0.0113   -0.0005   -0.4082   -0.0784
  Pz  C   23   -0.0022   -0.0013    0.0125    0.0038   -0.0011    0.0001    0.0442    0.0009
  S   C   24    0.1274    0.0490    0.0184    0.0020   -0.0041   -0.0003   -0.0779    0.0609
  Px  C   24   -0.0572   -0.0256    0.0669    0.0239    0.0142   -0.0008   -0.1916    0.0684
  Py  C   24    0.2034    0.1458    0.3078    0.0898   -0.0358   -0.0017    0.2527   -0.2200
  Pz  C   24   -0.0274   -0.0182   -0.0432   -0.0142    0.0001    0.0003   -0.0287    0.0284
  S   H   25    0.2282    0.1291   -0.2547   -0.0878   -0.0136   -0.0020    0.1686    0.0682
  S   H   26    0.1244    0.0483    0.0731    0.0217   -0.0044    0.0003   -0.3098   -0.1479
  S   H   27   -0.0779   -0.0325    0.0705    0.0177   -0.0160    0.0011    0.2815    0.0158
  S   H   28   -0.2210   -0.1246   -0.1863   -0.0518    0.0298    0.0008   -0.1891    0.1333
  S   C   29   -0.1307   -0.1107    0.2794    0.1064    0.0519   -0.0006    0.0261    0.0324
  Px  C   29    0.1129    0.0514    0.0896    0.0458    0.0368    0.0037   -0.1340    0.0129
  Py  C   29   -0.1577   -0.1662   -0.1451   -0.0530   -0.0354   -0.0023   -0.0442   -0.0017
  Pz  C   29    0.0072    0.0082   -0.0293   -0.0111   -0.0056    0.0000   -0.0045   -0.0028
  S   C   30    0.1798    0.1406    0.2565    0.0855    0.0147    0.0013   -0.0104    0.0106
  Px  C   30    0.0417    0.0903   -0.0604   -0.0321   -0.0477   -0.0001    0.1248   -0.2537
  Py  C   30   -0.1258   -0.0900    0.1427    0.0669    0.0582   -0.0042    0.1096   -0.1057
  Pz  C   30   -0.0082   -0.0091   -0.0289   -0.0067    0.0088    0.0002   -0.0120    0.0172


   Root No.      73        74        75        76        77        78        79        80

                73 A      74 A      75 A      76 A      77 A      78 A      79 A      80 A   

                 9.408     9.608    10.029    10.757    11.007    11.714    11.861    12.235
  
  S   C    1   -0.0047    0.0731   -0.0279   -0.0614    0.0539    0.0162    0.0138   -0.0030
  Px  C    1    0.0640    0.2360    0.1271   -0.2572   -0.0994   -0.1508    0.0637   -0.2147
  Py  C    1   -0.0711    0.1120   -0.1855   -0.0095    0.2209    0.1466   -0.0100    0.1462
  Pz  C    1    0.0024    0.0138    0.0035   -0.0135   -0.0015   -0.0066    0.0049   -0.0116
  S   C    2   -0.0497   -0.0820   -0.0843    0.0580    0.0721    0.0370    0.0184    0.0170
  Px  C    2    0.0440    0.2372    0.0621   -0.2605   -0.0051   -0.1127    0.0997   -0.2186
  Py  C    2   -0.1818   -0.2058   -0.2299    0.0260    0.1916    0.0243    0.1275   -0.0867
  Pz  C    2    0.0057    0.0197    0.0095   -0.0200   -0.0051   -0.0090    0.0046   -0.0133
  S   C    3   -0.0039   -0.0526   -0.0256    0.0716    0.0218    0.0198    0.0023    0.0124
  Px  C    3   -0.1941   -0.1576   -0.2240   -0.0546   -0.0039   -0.0016   -0.2352    0.0843
  Py  C    3   -0.0901   -0.0249   -0.1558   -0.0235    0.2748   -0.0137    0.3605   -0.2611
  Pz  C    3   -0.0022    0.0015   -0.0032   -0.0009    0.0079   -0.0013    0.0128   -0.0076
  S   C    4   -0.0125   -0.0564    0.0065    0.0353   -0.0570   -0.0230   -0.0137   -0.0019
  Px  C    4    0.0432   -0.1722    0.2561   -0.1518   -0.1743    0.0479   -0.1468    0.2004
  Py  C    4    0.0296   -0.1359    0.0700    0.0471    0.1584    0.0090    0.4122   -0.2015
  Pz  C    4    0.0037   -0.0070    0.0081   -0.0003    0.0039    0.0014    0.0148   -0.0064
  S   C    5   -0.0160   -0.1053    0.0518    0.0218   -0.1070   -0.0524   -0.0222   -0.0281
  Px  C    5    0.0437   -0.0651    0.1830   -0.1766   -0.0635    0.0916   -0.1325    0.2274
  Py  C    5    0.0746    0.3067   -0.0504   -0.1409    0.2199    0.1494    0.0032    0.1583
  Pz  C    5    0.0061    0.0181    0.0018   -0.0164    0.0160    0.0162   -0.0051    0.0216
  S   C    6    0.0413    0.0664    0.0579   -0.0792   -0.0038    0.0078   -0.0060    0.0206
  Px  C    6    0.1597    0.1905    0.1961   -0.1935   -0.0299    0.0045   -0.0061    0.0248
  Py  C    6   -0.0143    0.1469   -0.1364   -0.0712    0.2919    0.2449   -0.0426    0.2848
  Pz  C    6    0.0174    0.0326    0.0142   -0.0278    0.0142    0.0159   -0.0047    0.0217
  S   C    7    0.1051    0.0433    0.0611    0.0925    0.0337    0.0490    0.0496   -0.0148
  Px  C    7   -0.1206   -0.1588   -0.1580    0.0400    0.0120    0.0608   -0.2139    0.0972
  Py  C    7    0.3254    0.0894    0.0963    0.2706    0.0844    0.1635    0.0054   -0.0149
  Pz  C    7    0.0397    0.0131    0.0152    0.0291    0.0103    0.0174    0.0068   -0.0035
  S   C    8   -0.0281    0.0511   -0.0624    0.0497   -0.0839   -0.0660   -0.0543    0.0100
  Px  C    8   -0.0453   -0.0495   -0.0107    0.1188   -0.2036   -0.1745    0.1203   -0.0171
  Py  C    8    0.0488   -0.2015    0.1633   -0.0749    0.0942    0.0652    0.1924   -0.0636
  Pz  C    8   -0.0037   -0.0003   -0.0028    0.0057   -0.0113   -0.0094    0.0039   -0.0001
  S   C    9   -0.0049    0.0432   -0.0293   -0.0012    0.0021   -0.0195   -0.0300   -0.0072
  Px  C    9   -0.0804   -0.0043   -0.0539    0.1418   -0.2891   -0.2155    0.0604   -0.0097
  Py  C    9   -0.0451    0.0346    0.1069    0.1400   -0.1259    0.4213   -0.0585   -0.0999
  Pz  C    9   -0.0018    0.0003    0.0049    0.0079   -0.0090    0.0146   -0.0007   -0.0048
  S   C   10   -0.0015    0.0323    0.0357    0.0099    0.0117    0.0105    0.0208    0.0013
  Px  C   10    0.2874    0.0776   -0.0698    0.2721    0.1230   -0.2544    0.0068    0.0973
  Py  C   10    0.1636   -0.0192    0.0897    0.2001    0.0795    0.4144   -0.0753   -0.0349
  Pz  C   10    0.0153   -0.0002    0.0031    0.0187    0.0068    0.0194   -0.0064    0.0003
  S   C   11   -0.1168   -0.0007    0.0777   -0.0703   -0.0077    0.0702    0.0455    0.0062
  Px  C   11    0.1796    0.0883    0.0019    0.2259    0.1016   -0.2109    0.0638    0.1196
  Py  C   11   -0.3239    0.0515    0.1979   -0.0805    0.0257    0.0681    0.1354    0.0996
  Pz  C   11   -0.0054    0.0044    0.0085    0.0037    0.0053   -0.0041    0.0069    0.0069
  S   H   12   -0.2161    0.0034    0.1000   -0.0881   -0.0184    0.0939    0.0582    0.0272
  S   C   13    0.0047    0.0379   -0.0579   -0.0581    0.0556   -0.0569   -0.0595   -0.0277
  Px  C   13   -0.0629    0.1766   -0.1366    0.0177   -0.0765    0.0560   -0.1954   -0.1932
  Py  C   13   -0.0289   -0.0512    0.1161    0.1977   -0.1963    0.1898    0.0427   -0.0097
  Pz  C   13   -0.0035   -0.0015    0.0068    0.0114   -0.0115    0.0109    0.0040   -0.0006
  S   H   14    0.2035    0.0935    0.0980    0.1161    0.0458    0.0744    0.0701   -0.0401
  S   H   15   -0.0162    0.1339   -0.0505   -0.0881    0.0759    0.0221    0.0174    0.0016
  S   H   16   -0.1111   -0.1727   -0.1437    0.0856    0.1122    0.0466    0.0485    0.0100
  S   H   17   -0.0235   -0.1651    0.0737    0.0216   -0.1256   -0.0512   -0.0382   -0.0192
  S   H   18    0.1024    0.1134    0.1288   -0.1183   -0.0274   -0.0024   -0.0065    0.0105
  S   H   19   -0.0386    0.0865   -0.0849    0.0573   -0.1009   -0.0863   -0.0664    0.0307
  S   H   20    0.0044    0.0668   -0.0957   -0.0963    0.0849   -0.0943   -0.0670   -0.0379
  S   C   21    0.0797   -0.0563   -0.0764   -0.0554   -0.0717    0.0526    0.0412   -0.0054
  Px  C   21   -0.1427   -0.0120    0.1567   -0.1103    0.1322    0.0516   -0.1065   -0.2092
  Py  C   21    0.2153   -0.2141   -0.1265   -0.2088   -0.1056    0.1511    0.0637   -0.1072
  Pz  C   21    0.0001    0.0123   -0.0030    0.0203   -0.0007   -0.0136    0.0018    0.0185
  S   C   22   -0.0108    0.0632   -0.0406    0.0557   -0.0516    0.0130    0.0200    0.0095
  Px  C   22    0.0448   -0.2242    0.1261   -0.1437    0.1319   -0.0333   -0.0491   -0.0178
  Py  C   22    0.1285   -0.0728   -0.1809   -0.1754   -0.2041    0.2527    0.0860   -0.2049
  Pz  C   22   -0.0130    0.0118    0.0124    0.0188    0.0130   -0.0197   -0.0054    0.0179
  S   C   23   -0.0661    0.0261    0.0765    0.0775    0.0379   -0.0320   -0.0160    0.0044
  Px  C   23    0.1773   -0.1691   -0.0250   -0.1962    0.1670   -0.1591   -0.0694    0.1508
  Py  C   23    0.1850   -0.0081   -0.2464   -0.1134   -0.1921    0.1658    0.0730   -0.1018
  Pz  C   23   -0.0246    0.0105    0.0199    0.0185    0.0058   -0.0045   -0.0014    0.0009
  S   C   24    0.0616   -0.0802    0.0357   -0.0265    0.0804   -0.0497   -0.0503   -0.0025
  Px  C   24    0.1824   -0.1610   -0.0772   -0.2350    0.0945   -0.1017   -0.0235    0.1532
  Py  C   24   -0.1231    0.2017   -0.1613   -0.0674   -0.1529    0.0509    0.1275    0.1171
  Pz  C   24    0.0104   -0.0220    0.0251    0.0170    0.0176   -0.0035   -0.0160   -0.0203
  S   H   25    0.1504   -0.0978   -0.1111   -0.0663   -0.0958    0.0609    0.0703    0.0148
  S   H   26   -0.0291    0.1428   -0.0775    0.0902   -0.0805    0.0196    0.0311    0.0118
  S   H   27   -0.1559    0.0618    0.1334    0.1207    0.0423   -0.0322   -0.0164    0.0026
  S   H   28    0.1136   -0.1486    0.0611   -0.0331    0.1052   -0.0567   -0.0707   -0.0129
  S   C   29    0.0069   -0.0461   -0.0107   -0.0747   -0.0341    0.0431    0.0431    0.0102
  Px  C   29   -0.2019    0.0213    0.2418   -0.0365    0.2108   -0.0006   -0.1499   -0.2068
  Py  C   29   -0.1517    0.0569    0.1388    0.0078   -0.0472    0.0258    0.3324    0.3039
  Pz  C   29   -0.0051    0.0054    0.0044    0.0049    0.0004   -0.0018    0.0082    0.0096
  S   C   30    0.0275   -0.0324   -0.0079   -0.0454    0.0362   -0.0160   -0.0244   -0.0059
  Px  C   30   -0.0499    0.2073   -0.2159   -0.0599   -0.0272   -0.0161   -0.2383   -0.1946
  Py  C   30   -0.0346    0.0650   -0.1275   -0.1338   -0.1762    0.0476    0.3232    0.3371
  Pz  C   30    0.0013   -0.0115    0.0198    0.0162    0.0112   -0.0015   -0.0107   -0.0151


   Root No.      81        82        83        84

                81 A      82 A      83 A      84 A   

                12.480    12.786    13.191    14.521
  
  S   C    1   -0.0485    0.0486   -0.0030    0.0425
  Px  C    1   -0.0447    0.2809   -0.1441    0.1182
  Py  C    1   -0.0997   -0.0746    0.0988    0.0212
  Pz  C    1   -0.0034    0.0158   -0.0073    0.0074
  S   C    2   -0.0164   -0.0039    0.0155    0.0273
  Px  C    2   -0.0866    0.3221   -0.1398    0.1698
  Py  C    2   -0.0842    0.1446   -0.0125    0.1303
  Pz  C    2   -0.0051    0.0189   -0.0082    0.0086
  S   C    3    0.0072   -0.0051   -0.0069    0.0308
  Px  C    3   -0.1473    0.2682   -0.2333    0.2640
  Py  C    3   -0.0496    0.1661    0.0523    0.1057
  Pz  C    3    0.0001   -0.0004    0.0055   -0.0009
  S   C    4   -0.0028   -0.0004    0.0173    0.0347
  Px  C    4   -0.2431    0.0119    0.1449    0.1973
  Py  C    4   -0.0858    0.0212    0.2641    0.1134
  Pz  C    4   -0.0061    0.0021    0.0117    0.0075
  S   C    5    0.0177    0.0236   -0.0230    0.0187
  Px  C    5   -0.2536   -0.0078    0.1444    0.1598
  Py  C    5   -0.1615   -0.0559    0.1314    0.0485
  Pz  C    5   -0.0214   -0.0054    0.0151    0.0084
  S   C    6   -0.0578    0.0235    0.0216    0.0380
  Px  C    6   -0.1126    0.0609    0.0333    0.0751
  Py  C    6   -0.2126   -0.1367    0.2035    0.0549
  Pz  C    6   -0.0264   -0.0020    0.0164    0.0114
  S   C    7    0.0583   -0.0396    0.0147    0.0009
  Px  C    7   -0.1028    0.2391   -0.2328    0.2853
  Py  C    7    0.0844    0.0705   -0.0832    0.1460
  Pz  C    7    0.0114    0.0018   -0.0037    0.0095
  S   C    8    0.0343   -0.0350   -0.0046    0.0158
  Px  C    8   -0.1441   -0.0767    0.2950    0.2576
  Py  C    8   -0.1328    0.0504    0.1771    0.1098
  Pz  C    8   -0.0066   -0.0035    0.0124    0.0106
  S   C    9    0.0516   -0.0202   -0.0131   -0.0052
  Px  C    9   -0.0837   -0.1006    0.2853    0.2668
  Py  C    9    0.1917    0.1749    0.1258    0.1113
  Pz  C    9    0.0066    0.0058    0.0112    0.0096
  S   C   10    0.0416   -0.0493   -0.0059   -0.0014
  Px  C   10   -0.0631   -0.1086   -0.1805    0.3040
  Py  C   10    0.1254    0.2341   -0.1066    0.1326
  Pz  C   10    0.0054    0.0127   -0.0114    0.0156
  S   C   11    0.0616   -0.0342   -0.0159   -0.0118
  Px  C   11   -0.0009   -0.1719   -0.2008    0.2980
  Py  C   11    0.1487   -0.1254   -0.1424    0.1321
  Pz  C   11    0.0058   -0.0110   -0.0121    0.0139
  S   H   12    0.0697   -0.0063   -0.0208   -0.0077
  S   C   13    0.0286   -0.0351   -0.0038   -0.0154
  Px  C   13    0.1962   -0.0219    0.2616    0.2087
  Py  C   13    0.0665    0.0924    0.1282    0.1360
  Pz  C   13    0.0010    0.0037    0.0046    0.0063
  S   H   14    0.0670   -0.0210    0.0241   -0.0081
  S   H   15   -0.0600    0.0492    0.0039    0.0419
  S   H   16   -0.0171   -0.0150    0.0342    0.0154
  S   H   17    0.0180    0.0232   -0.0307    0.0107
  S   H   18   -0.0614    0.0385    0.0130    0.0399
  S   H   19    0.0152   -0.0435   -0.0096    0.0126
  S   H   20    0.0000   -0.0501   -0.0033   -0.0189
  S   C   21   -0.0263   -0.0097   -0.0157   -0.0261
  Px  C   21    0.0777   -0.3176   -0.1101    0.1963
  Py  C   21   -0.0156   -0.2112   -0.1220    0.0705
  Pz  C   21   -0.0045    0.0304    0.0130   -0.0143
  S   C   22   -0.0574    0.0398    0.0042   -0.0385
  Px  C   22    0.1317   -0.0770   -0.0001    0.0760
  Py  C   22   -0.1116   -0.3169   -0.1920    0.0870
  Pz  C   22    0.0047    0.0295    0.0161   -0.0106
  S   C   23   -0.0563    0.0357   -0.0005   -0.0360
  Px  C   23    0.3560    0.1104    0.1621    0.0802
  Py  C   23   -0.0696   -0.1529   -0.0939    0.0351
  Pz  C   23   -0.0120    0.0062   -0.0011   -0.0065
  S   C   24    0.0184    0.0215    0.0223   -0.0194
  Px  C   24    0.3898    0.0755    0.1509    0.1190
  Py  C   24    0.1818   -0.0074    0.0193    0.1009
  Pz  C   24   -0.0364   -0.0017   -0.0077   -0.0169
  S   H   25   -0.0264   -0.0130   -0.0314   -0.0156
  S   H   26   -0.0779    0.0438   -0.0018   -0.0412
  S   H   27   -0.0719    0.0415   -0.0004   -0.0377
  S   H   28    0.0263    0.0235    0.0340   -0.0107
  S   C   29    0.0151   -0.0090   -0.0065   -0.0271
  Px  C   29    0.0823   -0.3099   -0.1117    0.2313
  Py  C   29    0.1442   -0.0797   -0.2235    0.1517
  Pz  C   29    0.0047   -0.0019   -0.0067    0.0071
  S   C   30    0.0133   -0.0038   -0.0056   -0.0200
  Px  C   30    0.2158   -0.0542    0.2377    0.1809
  Py  C   30    0.2475    0.0536   -0.0584    0.0866
  Pz  C   30   -0.0299   -0.0009   -0.0067   -0.0122


              NET ATOMIC CHARGES AND DIPOLE CONTRIBUTIONS

  ATOM NO.   TYPE          CHARGE      No. of ELECS.   s-Pop       p-Pop       
    1          C          -0.034034        4.0340     1.10181     2.93223
    2          C          -0.026007        4.0260     1.09063     2.93538
    3          C           0.019721        3.9803     1.05076     2.92952
    4          C           0.002260        3.9977     1.08350     2.91424
    5          C          -0.034546        4.0345     1.11281     2.92174
    6          C          -0.021651        4.0217     1.09029     2.93136
    7          C          -0.028804        4.0288     1.08324     2.94556
    8          C          -0.033547        4.0335     1.09296     2.94058
    9          C           0.013946        3.9861     1.06446     2.92160
   10          C           0.009339        3.9907     1.06567     2.92499
   11          C          -0.031311        4.0313     1.09394     2.93737
   12          H           0.020822        0.9792     0.97918
   13          C          -0.047249        4.0472     1.11064     2.93661
   14          H           0.026537        0.9735     0.97346
   15          H           0.030001        0.9700     0.97000
   16          H           0.022411        0.9776     0.97759
   17          H           0.027089        0.9729     0.97291
   18          H           0.025232        0.9748     0.97477
   19          H           0.023213        0.9768     0.97679
   20          H           0.036481        0.9635     0.96352
   21          C          -0.032695        4.0327     1.09961     2.93308
   22          C          -0.022095        4.0221     1.08224     2.93985
   23          C          -0.028531        4.0285     1.08743     2.94111
   24          C          -0.035359        4.0354     1.11182     2.92354
   25          H           0.014663        0.9853     0.98534
   26          H           0.029063        0.9709     0.97094
   27          H           0.026597        0.9734     0.97340
   28          H           0.026002        0.9740     0.97400
   29          C           0.017819        3.9822     1.05777     2.92441
   30          C           0.004632        3.9954     1.08072     2.91465
 DIPOLE           X         Y         Z       TOTAL
 POINT-CHG.    -0.168    -0.074    -0.060     0.193
 HYBRID         0.054     0.144    -0.334     0.367
 SUM           -0.114     0.070    -0.394     0.416


          ATOMIC ORBITAL ELECTRON POPULATIONS

     Atom    s        px        py        pz   
    1  C   1.10181   0.97381   0.95162   1.00679
    2  C   1.09063   0.97390   0.96172   0.99976
    3  C   1.05076   0.96996   0.97090   0.98866
    4  C   1.08350   0.95854   0.97701   0.97869
    5  C   1.11281   0.96606   0.94830   1.00738
    6  C   1.09029   0.95416   0.98907   0.98813
    7  C   1.08324   0.96772   0.96448   1.01337
    8  C   1.09296   0.96922   0.95550   1.01585
    9  C   1.06446   0.97254   0.96748   0.98158
   10  C   1.06567   0.96781   0.97279   0.98439
   11  C   1.09394   0.96554   0.95131   1.02052
   12  H   0.97918
   13  C   1.11064   0.97515   0.94668   1.01478
   14  H   0.97346
   15  H   0.97000
   16  H   0.97759
   17  H   0.97291
   18  H   0.97477
   19  H   0.97679
   20  H   0.96352
   21  C   1.09961   0.96180   0.95739   1.01389
   22  C   1.08224   0.95200   0.99611   0.99174
   23  C   1.08743   0.97851   0.96052   1.00208
   24  C   1.11182   0.96690   0.95526   1.00138
   25  H   0.98534
   26  H   0.97094
   27  H   0.97340
   28  H   0.97400
   29  C   1.05777   0.96307   0.98006   0.98129
   30  C   1.08072   0.97204   0.96986   0.97274

 **********************
 *                    *
 * JOB ENDED NORMALLY *
 *                    *
 **********************



 TOTAL JOB TIME:             2.34 SECONDS

 == MOPAC DONE ==


          MOPAC Job: "./tetraceneTraj/tetracene_2379.mop" ended normally on Feb 15, 2023, at 11:42.

rm: cannot remove ./tetraceneTraj/tetracene_2379.cim: No such file or directory
rm: cannot remove ./tetraceneTraj/tetracene_2379.end: No such file or directory
rm: cannot remove ./tetraceneTraj/tetracene_2379.log: No such file or directory
rm: cannot remove ./tetraceneTraj/tetracene_2379.temp: No such file or directory
rm: cannot remove ./tetraceneTraj/tetracene_2379.ple: No such file or directory
rm: cannot remove ./tetraceneTraj/tetracene_2379.sts: No such file or directory
