 *******************************************************************************
 ** Site#:    0         For non-commercial use only    Version 20.173L 64BITS **
 *******************************************************************************
 ** Cite this program as: MOPAC2016, Version: 20.173L, James J. P. Stewart,   **
 ** Stewart Computational Chemistry, web-site: HTTP://OpenMOPAC.net.          **
 *******************************************************************************
 **                                                                           **
 **                                MOPAC2016                                  **
 **                                                                           **
 *******************************************************************************

                              INDO CALCULATION RESULTS

 *******************************************************************************
 *  CALCULATION DONE:                                Wed Feb 15 11:32:07 2023  *
 *  INDO       - The INDO Hamiltonian to be used
 *
 *
 *
 *                 CHARGE ON SYSTEM = 0
 *
 *
 *
 *  C.I.=(N,M) - 3 DOUBLY FILLED LEVELS USED IN A C.I. INVOLVING 6 M.O.'S
 *  T=         - A TIME OF 172800.0 SECONDS REQUESTED
 *  DUMP=N     - RESTART FILE WRITTEN EVERY 7200.0 SECONDS REQUESTED
 *  RELSCF     - DEFAULT SCF CRITERION MULTIPLIED BY 0.0000
 *              (DEFAULT SCF CRITERION = 0.00010)
 *  ALLVEC     - PRINT ALL EIGENVECTORS
 **********
 *  WARNING: Specified print options may not behave as expected with INDO
 **********
 *******************************************************************************
INDO C.I.=(6,3) AllVEC CHARGE=0 RELSCF=0.000001


   ATOM   CHEMICAL          X               Y               Z
  NUMBER   SYMBOL      (ANGSTROMS)     (ANGSTROMS)     (ANGSTROMS)
 
     1       C         18.53692214  *  19.48357772  *  22.36116723  *
     2       C         19.93465369  *  19.46339216  *  22.28355308  *
     3       C         20.70059406  *  20.68283870  *  22.42501911  *
     4       C         19.95885858  *  21.98003848  *  22.46029383  *
     5       C         18.49298542  *  21.97214553  *  22.41103340  *
     6       C         17.84130941  *  20.73275070  *  22.38246952  *
     7       C         22.10714719  *  20.65469061  *  22.52316089  *
     8       C         20.73270853  *  23.15335049  *  22.54991935  *
     9       C         22.13945459  *  23.14331786  *  22.58262854  *
    10       C         22.89721137  *  21.85247727  *  22.63486504  *
    11       C         24.33233213  *  21.81134762  *  22.63401782  *
    12       H         24.88739632  *  20.86170821  *  22.66797866  *
    13       C         22.87428049  *  24.35335921  *  22.55570492  *
    14       H         22.64120624  *  19.68226669  *  22.53356961  *
    15       H         17.86596809  *  18.56239855  *  22.37304776  *
    16       H         20.47043235  *  18.55435698  *  22.25195705  *
    17       H         17.95319207  *  22.93632590  *  22.28915939  *
    18       H         16.72686086  *  20.74251759  *  22.39094125  *
    19       H         20.26017016  *  24.11175320  *  22.47104157  *
    20       H         22.35216997  *  25.32135737  *  22.60379306  *
    21       C         26.52392315  *  23.06273135  *  22.47735599  *
    22       C         27.16119094  *  24.30173998  *  22.45731118  *
    23       C         26.41587120  *  25.49896004  *  22.56454114  *
    24       C         25.05375027  *  25.53665262  *  22.63554606  *
    25       H         27.05233352  *  22.10501739  *  22.48840134  *
    26       H         28.23329462  *  24.43264449  *  22.31926694  *
    27       H         27.00066695  *  26.43770203  *  22.47597372  *
    28       H         24.46688051  *  26.45297965  *  22.66864776  *
    29       C         25.02919359  *  23.01949164  *  22.54315442  *
    30       C         24.27512469  *  24.28025310  *  22.55741451  *
 


          CARTESIAN COORDINATES 

    NO.       ATOM           X           Y           Z

     1         C         18.5369     19.4836     22.3612
     2         C         19.9347     19.4634     22.2836
     3         C         20.7006     20.6828     22.4250
     4         C         19.9589     21.9800     22.4603
     5         C         18.4930     21.9721     22.4110
     6         C         17.8413     20.7328     22.3825
     7         C         22.1071     20.6547     22.5232
     8         C         20.7327     23.1534     22.5499
     9         C         22.1395     23.1433     22.5826
    10         C         22.8972     21.8525     22.6349
    11         C         24.3323     21.8113     22.6340
    12         H         24.8874     20.8617     22.6680
    13         C         22.8743     24.3534     22.5557
    14         H         22.6412     19.6823     22.5336
    15         H         17.8660     18.5624     22.3730
    16         H         20.4704     18.5544     22.2520
    17         H         17.9532     22.9363     22.2892
    18         H         16.7269     20.7425     22.3909
    19         H         20.2602     24.1118     22.4710
    20         H         22.3522     25.3214     22.6038
    21         C         26.5239     23.0627     22.4774
    22         C         27.1612     24.3017     22.4573
    23         C         26.4159     25.4990     22.5645
    24         C         25.0538     25.5367     22.6355
    25         H         27.0523     22.1050     22.4884
    26         H         28.2333     24.4326     22.3193
    27         H         27.0007     26.4377     22.4760
    28         H         24.4669     26.4530     22.6686
    29         C         25.0292     23.0195     22.5432
    30         C         24.2751     24.2803     22.5574

           Empirical Formula: C18 H12  =    30 atoms



      MOLECULAR POINT GROUP   :   C1  


      RHF CALCULATION, NO. OF DOUBLY OCCUPIED LEVELS = 42

 WARNING: INDO only performs single-point calculations
  SCF CRITERION =    0.1000E-09

 Summary of symmetry occupancy in each shell:

 SHELL     
    1   42
    v   42
 TOTAL  84




    ROOT NO.    1           2           3           4           5           6

           -44.54239   -42.86342   -40.37395   -36.98192   -35.89814   -34.15903
  
  
  S  C   1   0.10933     0.22112    -0.26213    -0.25792    -0.01956     0.10325
 PX  C   1   0.02909     0.05119    -0.04354    -0.01088    -0.04336     0.09011
 PY  C   1   0.04030     0.07815    -0.08475    -0.06806     0.02688    -0.04549
 PZ  C   1  -0.00006    -0.00045     0.00114     0.00190     0.00095    -0.00313
  
  S  C   2   0.14236     0.24825    -0.22358    -0.12581    -0.15262     0.29429
 PX  C   2  -0.00210    -0.02648     0.06816     0.10666    -0.05720     0.05129
 PY  C   2   0.05485     0.08707    -0.06068    -0.00437    -0.01483     0.01343
 PZ  C   2   0.00766     0.01271    -0.00996    -0.00312    -0.00725     0.01184
  
  S  C   3   0.25195     0.31103    -0.08631     0.15586    -0.18497     0.21787
 PX  C   3   0.00598    -0.05233     0.12991     0.13098    -0.09015     0.05974
 PY  C   3   0.04919     0.02497     0.06178     0.10629     0.07873    -0.14404
 PZ  C   3   0.00355     0.00002     0.00898     0.01237    -0.00136    -0.00420
  
  S  C   4   0.24847     0.30421    -0.07688     0.17442     0.14768    -0.21950
 PX  C   4   0.04993     0.00150     0.11648     0.16078    -0.04469     0.07892
 PY  C   4  -0.02127    -0.06064     0.08567     0.07217     0.09943    -0.11499
 PZ  C   4   0.00112    -0.00206     0.00772     0.00931     0.00139    -0.00181
  
  S  C   5   0.13360     0.23290    -0.20942    -0.11237     0.17227    -0.28999
 PX  C   5   0.04470     0.05966    -0.01675     0.05219     0.02812    -0.03487
 PY  C   5  -0.03232    -0.07145     0.09319     0.09686     0.00795    -0.01250
 PZ  C   5  -0.00010    -0.00106     0.00276     0.00434    -0.00057     0.00114
  
  S  C   6   0.10936     0.22125    -0.26250    -0.25743     0.09021    -0.13475
 PX  C   6   0.04836     0.09080    -0.09162    -0.05967     0.01146    -0.00641
 PY  C   6   0.00353     0.00251     0.00720     0.02688     0.04110    -0.09436
 PZ  C   6   0.00031     0.00039     0.00007     0.00088     0.00092    -0.00232
  
  S  C   7   0.22663     0.15582     0.12497     0.20923    -0.32393     0.19833
 PX  C   7  -0.02854    -0.07422     0.04326    -0.07843    -0.01447    -0.07942
 PY  C   7   0.07534     0.02263     0.08111     0.06396    -0.00961    -0.04955
 PZ  C   7   0.00001    -0.00308     0.00476    -0.00095    -0.00057    -0.00715
  
  S  C   8   0.23878     0.15740     0.15035     0.26211     0.27989    -0.19920
 PX  C   8   0.05345    -0.01761     0.09400     0.01478     0.01800     0.07496
 PY  C   8  -0.06079    -0.07347    -0.00386    -0.09673     0.03710     0.03681
 PZ  C   8  -0.00409    -0.00523     0.00059    -0.00605    -0.00562     0.00801
  
  S  C   9   0.33586     0.02768     0.30070     0.03974     0.21731    -0.00643
 PX  C   9   0.03001    -0.08693     0.02562    -0.19587    -0.06238     0.06821
 PY  C   9  -0.03736    -0.05159    -0.02592    -0.09689     0.15089     0.03262
 PZ  C   9  -0.00254    -0.00234    -0.00136    -0.00450    -0.00379     0.00168
  
  S  C  10   0.32169     0.01909     0.28032    -0.00878    -0.24106    -0.00317
 PX  C  10  -0.02127    -0.08894    -0.01803    -0.19416    -0.06113    -0.06365
 PY  C  10   0.05390    -0.04411     0.04672    -0.09158     0.13169    -0.03282
 PZ  C  10  -0.01108    -0.00343    -0.00888    -0.00588     0.00779    -0.00244
  
  S  C  11   0.23935    -0.12064     0.14492    -0.24056    -0.31190    -0.19218
 PX  C  11  -0.04713    -0.02373    -0.08578     0.00642     0.01678    -0.07294
 PY  C  11   0.07633    -0.06633     0.01950    -0.10177     0.00743    -0.04409
 PZ  C  11  -0.00586     0.00305    -0.00258     0.00474     0.00581     0.00503
  
  S  H  12   0.07062    -0.03522     0.03867    -0.06809    -0.15267    -0.09298
  
  S  C  13   0.25605    -0.11906     0.16643    -0.19258     0.32686     0.18838
 PX  C  13   0.03504    -0.07179    -0.03705    -0.09064    -0.01772     0.08108
 PY  C  13  -0.08325     0.01131    -0.09045     0.05442    -0.00603     0.04302
 PZ  C  13   0.00265    -0.00176     0.00207    -0.00346     0.00380     0.00315
  
  S  H  14   0.06884     0.04650     0.03368     0.05007    -0.15839     0.09888
  
  S  H  15   0.02618     0.05637    -0.07465    -0.08875    -0.00723     0.04015
  
  S  H  16   0.04646     0.07799    -0.06549    -0.03159    -0.08757     0.15658
  
  S  H  17   0.03930     0.06562    -0.05449    -0.02307     0.08129    -0.13752
  
  S  H  18   0.02750     0.05904    -0.07784    -0.09134     0.03685    -0.06102
  
  S  H  19   0.07835     0.04756     0.05048     0.07916     0.15591    -0.09837
  
  S  H  20   0.07889    -0.03520     0.04818    -0.04445     0.16368     0.09161
  
  S  C  21   0.15612    -0.22087    -0.20961     0.09335    -0.17321    -0.27057
 PX  C  21  -0.04998     0.05294     0.01229     0.05464     0.03562     0.03242
 PY  C  21   0.03935    -0.07034    -0.09682     0.09402     0.01993     0.01687
 PZ  C  21   0.00343    -0.00425    -0.00248    -0.00164    -0.00304    -0.00339
  
  S  C  22   0.13378    -0.21978    -0.27616     0.24706    -0.06996    -0.12324
 PX  C  22  -0.05828     0.08841     0.09340    -0.05362     0.00750     0.00597
 PY  C  22  -0.00253    -0.00065    -0.01202     0.03295     0.04575     0.08614
 PZ  C  22   0.00365    -0.00569    -0.00629     0.00411     0.00018     0.00117
  
  S  C  23   0.14004    -0.22829    -0.28302     0.25358     0.04796     0.10126
 PX  C  23  -0.03370     0.04600     0.03616     0.00093    -0.04814    -0.08691
 PY  C  23  -0.04894     0.07609     0.08520    -0.05862     0.02480     0.04692
 PZ  C  23  -0.00189     0.00351     0.00530    -0.00618     0.00198     0.00374
  
  S  C  24   0.17009    -0.23613    -0.21572     0.10621     0.17163     0.27178
 PX  C  24   0.00673    -0.03422    -0.08253     0.10939    -0.04868    -0.04332
 PY  C  24  -0.06477     0.08154     0.05586     0.00336    -0.01561    -0.01364
 PZ  C  24  -0.00576     0.00872     0.00929    -0.00602    -0.00338    -0.00543
  
  S  H  25   0.04661    -0.06310    -0.05492     0.01558    -0.08702    -0.13306
  
  S  H  26   0.03522    -0.06168    -0.08675     0.09396    -0.02721    -0.05162
  
  S  H  27   0.03666    -0.06360    -0.08805     0.09538     0.02037     0.04503
  
  S  H  28   0.05394    -0.07053    -0.05691     0.02179     0.09440     0.14134
  
  S  C  29   0.28247    -0.27135    -0.05194    -0.19207    -0.18039    -0.20746
 PX  C  29  -0.05365    -0.00674    -0.12487     0.14763    -0.03249    -0.07456
 PY  C  29   0.02888    -0.06064    -0.08391     0.06519     0.11318     0.11202
 PZ  C  29   0.00354    -0.00181     0.00405    -0.00805    -0.00202    -0.00040
  
  S  C  30   0.29391    -0.27705    -0.04416    -0.17833     0.17626     0.19969
 PX  C  30  -0.00538    -0.05743    -0.14211     0.11727    -0.09060    -0.06171
 PY  C  30  -0.05361     0.01648    -0.06877     0.10143     0.09790     0.13416
 PZ  C  30   0.00226    -0.00214     0.00019    -0.00248     0.00324     0.00492




    ROOT NO.    7           8           9          10          11          12

           -31.79404   -31.32267   -28.74528   -28.37097   -27.03103   -25.91129
  
  
  S  C   1  -0.18748     0.24067     0.21993     0.24156    -0.05175     0.20651
 PX  C   1  -0.09798    -0.09985     0.09064    -0.17218     0.02312     0.06869
 PY  C   1   0.05812     0.03836    -0.08498     0.00754    -0.04856    -0.09333
 PZ  C   1   0.00561    -0.00109    -0.00782     0.00076    -0.00154    -0.00777
  
  S  C   2  -0.28114    -0.07706     0.16893    -0.14513     0.10184     0.03155
 PX  C   2   0.03486    -0.12821    -0.13899    -0.09898     0.08898    -0.20122
 PY  C   2   0.02499    -0.06878    -0.07474    -0.07597    -0.07548    -0.09079
 PZ  C   2  -0.00743    -0.00671    -0.00072    -0.00729    -0.00067    -0.00517
  
  S  C   3  -0.04577    -0.23860    -0.11874    -0.10610    -0.08407    -0.17568
 PX  C   3   0.05289     0.04521    -0.12246     0.15454     0.08017    -0.08803
 PY  C   3   0.10705    -0.00016     0.01474     0.09410    -0.19227     0.10906
 PZ  C   3   0.00985     0.00457    -0.00685     0.01751    -0.00734     0.00427
  
  S  C   4   0.12563    -0.24986     0.08850    -0.13063    -0.11221     0.19418
 PX  C   4  -0.09598    -0.00625     0.07184     0.16171    -0.12210    -0.03734
 PY  C   4   0.00175     0.01519     0.11971     0.06649     0.14370     0.10950
 PZ  C   4  -0.00179     0.00179     0.00668     0.01216    -0.00262     0.00474
  
  S  C   5   0.28008    -0.02047    -0.19349    -0.15207     0.13615    -0.05763
 PX  C   5  -0.00377    -0.13897     0.11174    -0.12752    -0.05531     0.19796
 PY  C   5  -0.01060    -0.08239     0.07172    -0.04805     0.07930     0.10365
 PZ  C   5  -0.00261    -0.00447     0.00657    -0.00030    -0.00515     0.00850
  
  S  C   6   0.13012     0.28039    -0.17305     0.24186     0.00673    -0.19643
 PX  C   6  -0.00525    -0.02558     0.02986    -0.08746    -0.04499     0.07518
 PY  C   6   0.13379    -0.07429    -0.15537    -0.14943     0.08190    -0.13628
 PZ  C   6   0.00344    -0.00168    -0.00379    -0.00196    -0.00013    -0.00299
  
  S  C   7   0.15604     0.04599    -0.23000     0.13353     0.17629    -0.01696
 PX  C   7   0.09734     0.15712     0.05500     0.01752     0.10510     0.20860
 PY  C   7   0.06382     0.09076     0.02378     0.09287    -0.15968     0.10395
 PZ  C   7   0.00962     0.01450     0.00366     0.00842     0.00100     0.02081
  
  S  C   8  -0.14126    -0.03783     0.24990     0.10781     0.15100     0.02586
 PX  C   8  -0.13149     0.14311    -0.03884     0.09307    -0.04512    -0.20014
 PY  C   8  -0.08861     0.07278    -0.01466    -0.03292     0.19915    -0.10361
 PZ  C   8  -0.00284     0.00926    -0.00697     0.00337    -0.00511    -0.00970
  
  S  C   9  -0.22514     0.21656     0.00650     0.01175    -0.07179    -0.18389
 PX  C   9   0.06259     0.03623    -0.12790    -0.17154    -0.12308     0.04737
 PY  C   9  -0.13607    -0.03196    -0.04663    -0.09842     0.22135    -0.09005
 PZ  C   9   0.00333     0.00294    -0.00180    -0.00212    -0.00471     0.00198
  
  S  C  10   0.18953     0.27440    -0.00410     0.00526    -0.07840     0.17393
 PX  C  10   0.05251    -0.01266     0.11113    -0.18179     0.11800     0.06687
 PY  C  10  -0.12471     0.00113     0.04580    -0.10056    -0.21567    -0.12750
 PZ  C  10  -0.00477    -0.00494     0.00558    -0.00633     0.00509    -0.00021
  
  S  C  11   0.13229     0.02077     0.24017    -0.12748     0.19178     0.02125
 PX  C  11  -0.10558    -0.16445     0.05147     0.07761     0.07342    -0.17825
 PY  C  11  -0.05273    -0.08115     0.02968    -0.04557    -0.17567    -0.12955
 PZ  C  11   0.00129     0.00391    -0.00200    -0.00087     0.00224     0.00688
  
  S  H  12   0.05809     0.00253     0.11403    -0.01625     0.21798     0.02550
  
  S  C  13  -0.15192     0.00680    -0.22988    -0.11033     0.17122     0.04302
 PX  C  13   0.13878    -0.12375    -0.07060     0.00371    -0.13123     0.18803
 PY  C  13   0.07980    -0.08410    -0.01769     0.09139     0.14904     0.13386
 PZ  C  13  -0.00095     0.00100    -0.00248    -0.00166     0.00312     0.00083
  
  S  H  14   0.06855     0.01933    -0.10355     0.02185     0.21192    -0.00145
  
  S  H  15  -0.08342     0.12904     0.11517     0.17133    -0.01077     0.12293
  
  S  H  16  -0.14142    -0.04145     0.07892    -0.06517     0.12589     0.00113
  
  S  H  17   0.12988    -0.01220    -0.08799    -0.06365     0.13041    -0.03291
  
  S  H  18   0.06604     0.14911    -0.10288     0.16870     0.03015    -0.14511
  
  S  H  19  -0.08132    -0.01863     0.12275     0.01175     0.20769     0.01127
  
  S  H  20  -0.06976    -0.00606    -0.09717    -0.00809     0.21220     0.04064
  
  S  C  21  -0.28604    -0.09582    -0.18874     0.17314     0.12183     0.06187
 PX  C  21  -0.03657     0.13024    -0.12676    -0.10766     0.02830     0.18914
 PY  C  21  -0.02665     0.07567    -0.08483    -0.03717    -0.10535     0.08620
 PZ  C  21   0.00062    -0.00659     0.00705     0.00610     0.00124    -0.01039
  
  S  C  22  -0.20306     0.24087    -0.20954    -0.21402    -0.02875     0.19321
 PX  C  22  -0.00924     0.03097    -0.03481    -0.09099     0.03656     0.07993
 PY  C  22   0.11475     0.11384     0.14260    -0.16610    -0.05421    -0.11825
 PZ  C  22   0.00347    -0.00025     0.00727     0.00408    -0.00291    -0.01103
  
  S  C  23   0.13391     0.26961     0.20906    -0.22906    -0.00630    -0.18499
 PX  C  23  -0.12646     0.09608    -0.11247    -0.17804    -0.03867     0.07102
 PY  C  23   0.07677    -0.00907     0.10678    -0.01581     0.07243    -0.08901
 PZ  C  23   0.00692    -0.01117     0.00716     0.01591     0.00441    -0.00581
  
  S  C  24   0.29586    -0.03952     0.18311     0.14466     0.12190    -0.01043
 PX  C  24   0.01036     0.13586     0.14438    -0.09597    -0.05565    -0.20702
 PY  C  24   0.00754     0.08203     0.07664    -0.08452     0.09504    -0.07038
 PZ  C  24  -0.00538    -0.00119    -0.00255    -0.00139     0.00233     0.00096
  
  S  H  25  -0.13559    -0.04895    -0.08275     0.07545     0.13151     0.04148
  
  S  H  26  -0.09783     0.14307    -0.11548    -0.17154     0.00259     0.13863
  
  S  H  27   0.06359     0.15473     0.12040    -0.17615     0.02063    -0.11547
  
  S  H  28   0.14342    -0.02190     0.07940     0.06117     0.13578     0.02928
  
  S  C  29  -0.06108    -0.25789     0.10962     0.09939    -0.08765    -0.19713
 PX  C  29  -0.10580    -0.03668    -0.05512     0.17486     0.12778    -0.03019
 PY  C  29   0.01194    -0.03395    -0.12307     0.08844    -0.17579     0.06611
 PZ  C  29   0.00565    -0.00136     0.00988    -0.00724    -0.00054    -0.00317
  
  S  C  30   0.10757    -0.23123    -0.12001     0.09685    -0.12312     0.14769
 PX  C  30   0.05755    -0.05160     0.13440     0.15731    -0.07016    -0.09794
 PY  C  30   0.09547     0.00169    -0.01960     0.10668     0.18417     0.14110
 PZ  C  30   0.00520    -0.00262     0.00176     0.00254     0.00309     0.00408




    ROOT NO.   13          14          15          16          17          18

           -25.21014   -24.02093   -22.78064   -21.41207   -20.61802   -19.31473
  
  
  S  C   1   0.01351    -0.10805    -0.01180     0.18515    -0.01388     0.00608
 PX  C   1   0.03968     0.24975     0.00357    -0.04527     0.21049     0.16273
 PY  C   1  -0.14160     0.00419     0.19507    -0.10420    -0.12458     0.17760
 PZ  C   1  -0.00642    -0.00856     0.00685    -0.00120    -0.01532    -0.00424
  
  S  C   2   0.16572     0.16872    -0.11987    -0.12985     0.10356     0.00303
 PX  C   2   0.06368    -0.07036    -0.06654    -0.15286    -0.14879    -0.15256
 PY  C   2  -0.19109    -0.00649     0.22008    -0.05952    -0.16202     0.07696
 PZ  C   2  -0.00664     0.00023     0.01160    -0.00046    -0.01067     0.00757
  
  S  C   3  -0.15502    -0.11510     0.03228    -0.08097    -0.07416    -0.13655
 PX  C   3   0.13512    -0.16292    -0.15381     0.11479     0.00276     0.00158
 PY  C   3  -0.18195    -0.05794     0.01138     0.09891     0.14796    -0.07866
 PZ  C   3  -0.00444    -0.01336    -0.00479     0.02210     0.01222     0.00450
  
  S  C   4  -0.09608    -0.08346     0.00909     0.10838    -0.05070    -0.14556
 PX  C   4  -0.09653    -0.15951    -0.06893    -0.17975     0.08563    -0.08501
 PY  C   4   0.24679    -0.09799    -0.15398     0.00781    -0.07889     0.02500
 PZ  C   4   0.00352    -0.01126    -0.00949    -0.00410     0.00275     0.00182
  
  S  C   5   0.16642     0.17506    -0.11799     0.09860     0.12333     0.01393
 PX  C   5  -0.07683     0.00051     0.13426     0.19198    -0.16579    -0.00198
 PY  C   5   0.16420    -0.03730    -0.16459     0.12662    -0.01898    -0.15982
 PZ  C   5  -0.00699    -0.00699     0.00852     0.00412    -0.01270     0.00109
  
  S  C   6  -0.02570    -0.13469     0.00124    -0.16396    -0.05530     0.00786
 PX  C   6  -0.09344     0.14188     0.17298     0.11130     0.01464     0.23772
 PY  C   6   0.08272     0.19317    -0.08887    -0.10672     0.22241     0.04559
 PZ  C   6  -0.00178    -0.00050     0.00174    -0.00150    -0.00291    -0.00115
  
  S  C   7   0.11906    -0.10659     0.07089     0.22241    -0.03863     0.15971
 PX  C   7   0.05575     0.15648     0.16486     0.06317     0.02923     0.14325
 PY  C   7  -0.09893     0.11367    -0.04813    -0.01184     0.21264    -0.02167
 PZ  C   7  -0.00163     0.01591     0.01316     0.00953     0.01582     0.01480
  
  S  C   8   0.13743    -0.11554     0.04749    -0.18355    -0.08157     0.14157
 PX  C   8  -0.10274     0.15889     0.06402    -0.09645     0.18396     0.07281
 PY  C   8   0.07987     0.05687     0.17448    -0.03405    -0.11402     0.15110
 PZ  C   8  -0.00712     0.01346     0.00147    -0.00304     0.01280     0.00554
  
  S  C   9  -0.01615     0.22769    -0.02878    -0.00914     0.00861     0.00041
 PX  C   9   0.00035     0.05423    -0.11272     0.19003    -0.15030    -0.14722
 PY  C   9  -0.00606    -0.08071     0.20685     0.10710    -0.09099    -0.07627
 PZ  C   9  -0.00154     0.00969    -0.00551    -0.00268     0.00110    -0.00298
  
  S  C  10   0.02999     0.23756    -0.01917    -0.02192    -0.01150    -0.00951
 PX  C  10   0.01611    -0.06191     0.11763    -0.15994    -0.19913    -0.14773
 PY  C  10  -0.01629     0.06891    -0.20821    -0.07899    -0.10069    -0.07950
 PZ  C  10  -0.00167     0.00054     0.00545    -0.01220    -0.00482    -0.01176
  
  S  C  11  -0.13208    -0.10188     0.06817    -0.20153     0.04981    -0.15834
 PX  C  11  -0.12010    -0.14490    -0.06822     0.06998     0.21395     0.06987
 PY  C  11   0.05485    -0.06924    -0.15778     0.05559    -0.09826     0.15500
 PZ  C  11   0.00078     0.00537     0.00813    -0.01236    -0.00091    -0.01828
  
  S  H  12  -0.13731    -0.05972     0.09975    -0.10492     0.15445    -0.15215
  
  S  C  13  -0.13385    -0.08994     0.06510     0.20007     0.08889    -0.16346
 PX  C  13   0.02476    -0.13649    -0.17324    -0.06509     0.01129     0.12570
 PY  C  13  -0.09597    -0.09685     0.04088    -0.05030     0.21022    -0.01296
 PZ  C  13  -0.00484     0.00356    -0.00081    -0.00210     0.00151    -0.00694
  
  S  H  14   0.13377    -0.07035     0.11379     0.13344    -0.13359     0.14062
  
  S  H  15   0.06199    -0.15100    -0.11157     0.17044    -0.02455    -0.17881
  
  S  H  16   0.21503     0.06799    -0.20878    -0.08091     0.09696    -0.09723
  
  S  H  17   0.20035     0.06792    -0.19605     0.05846     0.10631    -0.08841
  
  S  H  18   0.04497    -0.15894    -0.11482    -0.16268    -0.03866    -0.17561
  
  S  H  19   0.14499    -0.07472     0.11007    -0.07922    -0.16441     0.14403
  
  S  H  20  -0.13027    -0.05983     0.10900     0.08661     0.16279    -0.13071
  
  S  C  21  -0.15066     0.19039    -0.12303     0.11707    -0.12135    -0.01685
 PX  C  21  -0.07698     0.02693    -0.12960    -0.15174    -0.22793    -0.01710
 PY  C  21   0.16939     0.02402     0.16590    -0.12309    -0.04059    -0.18105
 PZ  C  21   0.00069     0.00057     0.00620     0.00754     0.01162    -0.00877
  
  S  C  22   0.01552    -0.11742     0.00189    -0.17171     0.01858    -0.00247
 PX  C  22  -0.10066    -0.12485    -0.16509    -0.11281    -0.01357     0.26818
 PY  C  22   0.05871    -0.20333     0.07975     0.05719     0.25962     0.06871
 PZ  C  22   0.00801     0.00792     0.01587     0.01390     0.00590    -0.03156
  
  S  C  23  -0.02800    -0.08372    -0.00509     0.17318     0.04331    -0.03047
 PX  C  23   0.01700    -0.23764    -0.00515     0.00514     0.21859     0.16445
 PY  C  23  -0.14786     0.00182    -0.19389     0.12845    -0.11343     0.18663
 PZ  C  23  -0.00408     0.02146    -0.00307     0.00130    -0.02373    -0.01763
  
  S  C  24  -0.14044     0.16951    -0.10930    -0.12104    -0.12941     0.00392
 PX  C  24   0.06049     0.06549     0.06696     0.18882    -0.11881    -0.17236
 PY  C  24  -0.18331     0.01978    -0.20058     0.07883    -0.15104     0.07937
 PZ  C  24  -0.00600     0.00084    -0.00872    -0.00294    -0.00822     0.00316
  
  S  H  25  -0.19719     0.09223    -0.19831     0.08028    -0.11186     0.09343
  
  S  H  26  -0.04935    -0.15753    -0.10243    -0.16306     0.02311     0.20901
  
  S  H  27  -0.08584    -0.12489    -0.11395     0.16602     0.03901     0.17281
  
  S  H  28  -0.19446     0.07391    -0.18893    -0.08259    -0.10591     0.11099
  
  S  C  29   0.08832    -0.10673     0.01351     0.09730     0.08102     0.16382
 PX  C  29  -0.08559     0.14694     0.05373     0.15309     0.13772    -0.07299
 PY  C  29   0.24558     0.07724     0.14055     0.01926    -0.07383     0.03470
 PZ  C  29  -0.00205    -0.00909    -0.00229    -0.01640    -0.00018    -0.00664
  
  S  C  30   0.14013    -0.12274     0.01764    -0.08441     0.05261     0.14475
 PX  C  30   0.15878     0.12530     0.15578    -0.11082    -0.00749     0.02711
 PY  C  30  -0.16146     0.06822    -0.01093    -0.13709     0.13225    -0.07584
 PZ  C  30  -0.00464     0.00266    -0.00344    -0.01427    -0.00014    -0.00323




    ROOT NO.   19          20          21          22          23          24

           -18.30657   -17.21433   -17.07980   -16.74707   -16.02184   -15.37484
  
  
  S  C   1   0.16674    -0.01253    -0.00765     0.11007    -0.05616     0.01741
 PX  C   1  -0.09445    -0.17199    -0.07430     0.03665    -0.21172     0.13377
 PY  C   1  -0.13543     0.16933     0.10493    -0.05390    -0.17092     0.04586
 PZ  C   1   0.00524     0.01527     0.00396    -0.00715     0.01021    -0.02635
  
  S  C   2  -0.14938     0.00639     0.03221    -0.03946     0.00755     0.04643
 PX  C   2  -0.07822     0.19248     0.09805    -0.11045     0.23063    -0.11713
 PY  C   2   0.05200     0.08936     0.13382     0.27676     0.01909     0.22419
 PZ  C   2   0.01263     0.00597     0.00416     0.01924    -0.01116    -0.00264
  
  S  C   3   0.07000    -0.06348     0.05791     0.20449     0.06956     0.02053
 PX  C   3   0.15887     0.00452     0.00415     0.02436    -0.23840    -0.18216
 PY  C   3   0.02368    -0.24471    -0.17192    -0.07682     0.02290    -0.05267
 PZ  C   3   0.01896    -0.01548    -0.02123    -0.01707    -0.03668    -0.04807
  
  S  C   4  -0.06113    -0.01285    -0.08368    -0.20539     0.10045    -0.00048
 PX  C   4  -0.15079    -0.20075    -0.08966     0.07998    -0.10177     0.15899
 PY  C   4  -0.10120     0.15621     0.05890    -0.08257    -0.19766     0.04197
 PZ  C   4  -0.01287     0.00687    -0.01048    -0.03313    -0.03071    -0.03934
  
  S  C   5   0.17149     0.00836    -0.01519     0.06252     0.00859    -0.05042
 PX  C   5   0.03823     0.19278     0.05303    -0.21496     0.13995    -0.13481
 PY  C   5   0.15148     0.05891     0.11284     0.23745     0.12852     0.23622
 PZ  C   5  -0.01333     0.01391    -0.00550    -0.04829    -0.00209    -0.05122
  
  S  C   6  -0.16967     0.02124     0.00499    -0.11585    -0.05420    -0.03143
 PX  C   6   0.14598     0.06978    -0.01233     0.02347    -0.21389    -0.16090
 PY  C   6  -0.04313    -0.20845    -0.14297    -0.02964    -0.06430    -0.08662
 PZ  C   6  -0.00411     0.00458    -0.00522    -0.02386     0.00328    -0.03638
  
  S  C   7   0.07689    -0.04436    -0.05061    -0.05169    -0.09461    -0.00865
 PX  C   7  -0.16977    -0.01274    -0.06696    -0.15407     0.17050     0.17100
 PY  C   7  -0.08486    -0.10749     0.17807     0.16450     0.04658    -0.09002
 PZ  C   7  -0.01256    -0.00355    -0.00435    -0.01401     0.00471    -0.01502
  
  S  C   8  -0.10350    -0.00889    -0.00887     0.05393    -0.08848     0.00887
 PX  C   8   0.17545    -0.00627    -0.15332    -0.02101     0.16366    -0.00819
 PY  C   8   0.07219    -0.04278     0.14155     0.21681     0.06232    -0.12474
 PZ  C   8   0.01214     0.01526    -0.00661    -0.02040     0.00164    -0.03768
  
  S  C   9   0.14209     0.19132    -0.09983    -0.07169     0.07391     0.06078
 PX  C   9  -0.03876     0.09841     0.09361    -0.03628    -0.08363     0.03366
 PY  C   9   0.05369    -0.16681    -0.18258    -0.02461     0.10315     0.06180
 PZ  C   9   0.00583     0.02510     0.01581    -0.01440    -0.00470    -0.04507
  
  S  C  10  -0.12067     0.02759     0.23821     0.05274     0.07872    -0.05510
 PX  C  10  -0.03928    -0.14460    -0.02340     0.05174     0.07546    -0.02436
 PY  C  10   0.09012     0.22295     0.04850    -0.03478    -0.11209    -0.01994
 PZ  C  10   0.00356     0.01534    -0.00427    -0.00488    -0.00066    -0.03344
  
  S  C  11   0.09587     0.00271    -0.06131     0.03491    -0.07461    -0.03503
 PX  C  11   0.15891     0.14865    -0.12078    -0.06938    -0.15544     0.03140
 PY  C  11   0.06470    -0.16904     0.24823    -0.10339    -0.09685    -0.16057
 PZ  C  11   0.00285     0.01744    -0.01524     0.00805    -0.00241    -0.02794
  
  S  H  12   0.06268     0.18782    -0.27477     0.06463    -0.03485     0.11393
  
  S  C  13  -0.09363    -0.07017     0.02185    -0.03450    -0.06980     0.00816
 PX  C  13  -0.15879     0.15495    -0.11560     0.11478    -0.17729     0.10303
 PY  C  13  -0.08446    -0.12840     0.28616    -0.00081    -0.02800    -0.16974
 PZ  C  13   0.01027     0.01022     0.01475    -0.01265    -0.00220    -0.04035
  
  S  H  14   0.02984     0.05587    -0.19761    -0.21926    -0.01534     0.13504
  
  S  H  15   0.21391    -0.03775    -0.03847     0.07657     0.20251    -0.08848
  
  S  H  16  -0.14313     0.02411    -0.04477    -0.27638     0.08608    -0.19360
  
  S  H  17   0.17615    -0.03197     0.05891     0.30529     0.03690     0.21627
  
  S  H  18  -0.20161    -0.04785     0.01341    -0.07550     0.15838     0.12941
  
  S  H  19  -0.06110    -0.04873     0.16950     0.20692    -0.06365    -0.09045
  
  S  H  20  -0.04335    -0.19794     0.27970    -0.06445     0.00806    -0.16621
  
  S  C  21  -0.15583     0.00999     0.00489     0.06013     0.01125     0.02712
 PX  C  21   0.01736    -0.10449    -0.21555     0.13094    -0.09898    -0.19659
 PY  C  21   0.13392    -0.15575     0.08345    -0.14811    -0.18974     0.21985
 PZ  C  21  -0.00126     0.01831     0.00569     0.00009    -0.01592    -0.02511
  
  S  C  22   0.15903    -0.02630     0.04027    -0.08985    -0.06537     0.04060
 PX  C  22   0.14526    -0.06673    -0.05860    -0.03779     0.22602    -0.07970
 PY  C  22  -0.02434     0.21720     0.08249     0.01439     0.09010    -0.07204
 PZ  C  22  -0.01779     0.02014     0.00442     0.00955    -0.04183    -0.02088
  
  S  C  23  -0.16191     0.03497    -0.03980     0.08882    -0.04673    -0.05551
 PX  C  23  -0.07556     0.12733     0.12095     0.01195     0.13369     0.13222
 PY  C  23  -0.13629    -0.14715    -0.08516     0.06785     0.15088     0.05646
 PZ  C  23   0.00771    -0.01179    -0.01061    -0.00329    -0.02951    -0.03003
  
  S  C  24   0.16501     0.00399     0.00426    -0.06629     0.00550    -0.01651
 PX  C  24  -0.11006    -0.11903    -0.14886     0.06652    -0.15397    -0.14320
 PY  C  24   0.04491    -0.19492     0.11205    -0.16909    -0.06757     0.26221
 PZ  C  24   0.01395    -0.00604     0.01020    -0.01592    -0.01105    -0.00955
  
  S  H  25  -0.16369     0.08568    -0.15402     0.19577     0.10144    -0.23777
  
  S  H  26   0.19380    -0.04994    -0.01909    -0.07764     0.17458    -0.04912
  
  S  H  27  -0.20442    -0.02982    -0.02571     0.09830     0.15396     0.07722
  
  S  H  28   0.15959    -0.08807     0.16230    -0.18848     0.01961     0.24766
  
  S  C  29   0.05066    -0.13289     0.13449    -0.11664     0.06931     0.04715
 PX  C  29  -0.10998     0.17985     0.14426    -0.04459     0.07725     0.17814
 PY  C  29  -0.10669    -0.08848    -0.12825     0.07408     0.21337     0.07884
 PZ  C  29   0.02264     0.00783    -0.00555    -0.00081    -0.02499    -0.05956
  
  S  C  30  -0.07094     0.06262    -0.17909     0.13371     0.07963    -0.02555
 PX  C  30   0.15983    -0.06503     0.03056    -0.02759     0.24697    -0.13091
 PY  C  30   0.05143     0.26242     0.06215     0.03625    -0.01867    -0.08810
 PZ  C  30   0.01931     0.01681     0.00747    -0.00638    -0.00697    -0.05122




    ROOT NO.   25          26          27          28          29          30

           -14.93090   -14.78408   -14.70142   -14.52487   -13.58849   -13.47670
  
  
  S  C   1  -0.03689     0.03037     0.02042    -0.01124    -0.05556     0.00188
 PX  C   1  -0.07797    -0.04770    -0.21807     0.06705    -0.09272    -0.02617
 PY  C   1  -0.07408    -0.26838     0.11373     0.04383    -0.09839     0.15156
 PZ  C   1  -0.00931     0.05609     0.02021     0.11137    -0.04008    -0.22010
  
  S  C   2  -0.01124    -0.09462    -0.01477     0.02584     0.03720     0.00590
 PX  C   2   0.07836    -0.00148     0.20528    -0.03663     0.12277    -0.00610
 PY  C   2  -0.15890    -0.02112    -0.02646     0.01100     0.07734    -0.11818
 PZ  C   2  -0.03752     0.06550     0.00017     0.15245    -0.05571    -0.24285
  
  S  C   3   0.04988     0.06064    -0.03233     0.01069    -0.02111    -0.00915
 PX  C   3   0.13070    -0.02132     0.06337     0.00232    -0.24670     0.10985
 PY  C   3   0.07495     0.08359    -0.12435    -0.04393    -0.01316     0.11197
 PZ  C   3  -0.03197     0.09395     0.00270     0.24838    -0.09122    -0.24622
  
  S  C   4  -0.02676    -0.00131    -0.05951    -0.00546    -0.00739     0.01262
 PX  C   4  -0.13270     0.03474    -0.06931    -0.03463    -0.13862     0.06029
 PY  C   4  -0.10668    -0.13715     0.08409     0.01632    -0.18734     0.01085
 PZ  C   4  -0.05021     0.08448     0.02272     0.24580    -0.08505    -0.25505
  
  S  C   5   0.00348     0.03761     0.09550    -0.02125     0.00970    -0.01000
 PX  C   5   0.11093    -0.07318     0.01819     0.02634     0.13234    -0.02392
 PY  C   5  -0.17528    -0.19485     0.01151     0.06078     0.07339     0.03736
 PZ  C   5   0.00297     0.06208     0.00655     0.14672    -0.05001    -0.22702
  
  S  C   6   0.02873    -0.04450    -0.00803     0.01044    -0.04662     0.03358
 PX  C   6   0.03864     0.05587     0.23718    -0.07810    -0.15289     0.09211
 PY  C   6   0.08747     0.24434    -0.10891    -0.04892    -0.03326    -0.09572
 PZ  C   6   0.00168     0.05846     0.00825     0.11247    -0.04326    -0.21876
  
  S  C   7  -0.00142    -0.02080    -0.06874     0.00540     0.02876     0.01206
 PX  C   7  -0.13190    -0.03948    -0.07957    -0.03418     0.27087    -0.06243
 PY  C   7   0.28588    -0.19993     0.00290     0.10447     0.09794     0.04395
 PZ  C   7  -0.04833     0.06509     0.00183     0.24157    -0.00462    -0.13211
  
  S  C   8  -0.00693     0.07088     0.03181    -0.01383     0.01447    -0.02485
 PX  C   8  -0.13758     0.05955     0.22598    -0.09552     0.18017    -0.00271
 PY  C   8   0.29000     0.10008    -0.13364     0.02763     0.16947    -0.03042
 PZ  C   8  -0.06526     0.08393     0.03881     0.23875    -0.01711    -0.13525
  
  S  C   9  -0.03718     0.00987     0.00959    -0.00957    -0.01203    -0.00680
 PX  C   9   0.14353    -0.06954    -0.25459     0.08067    -0.18363     0.01584
 PY  C   9   0.07505    -0.01181    -0.13270     0.03988    -0.10467     0.12246
 PZ  C   9  -0.08670     0.10180     0.02375     0.31025     0.00548    -0.01036
  
  S  C  10   0.01836     0.00897    -0.01749     0.02007    -0.01560    -0.02202
 PX  C  10  -0.13572     0.21233     0.04436    -0.11796    -0.23813     0.07969
 PY  C  10  -0.10099     0.10078     0.01927    -0.05156    -0.13070    -0.05820
 PZ  C  10  -0.08201     0.10747     0.02586     0.29851    -0.01114     0.00250
  
  S  C  11   0.00416     0.01530     0.06651    -0.01399    -0.02007     0.00724
 PX  C  11   0.11229    -0.19324    -0.03364     0.09101     0.23920    -0.07059
 PY  C  11  -0.21609     0.07655    -0.11613    -0.10846     0.18778    -0.02504
 PZ  C  11  -0.05207     0.07528     0.02116     0.24448     0.02506     0.13744
  
  S  H  12   0.20461    -0.13047     0.10167     0.12165    -0.05192    -0.00271
  
  S  C  13  -0.01038    -0.08100    -0.01164     0.01646    -0.01548    -0.00845
 PX  C  13   0.09485     0.12842     0.06605    -0.03653     0.24042    -0.07562
 PY  C  13  -0.20200    -0.04355     0.22145    -0.04620     0.07129    -0.08745
 PZ  C  13  -0.07851     0.07886     0.00336     0.24604     0.03884     0.13035
  
  S  H  14  -0.27347     0.12415    -0.05897    -0.09206     0.05537    -0.05580
  
  S  H  15   0.07388     0.24263     0.03600    -0.07246     0.10710    -0.11215
  
  S  H  16   0.14209    -0.03144     0.10608    -0.02137     0.02063     0.10251
  
  S  H  17  -0.17611    -0.10635     0.04566     0.01254     0.01348     0.05869
  
  S  H  18  -0.02104    -0.07216    -0.22383     0.07830     0.12675    -0.07526
  
  S  H  19   0.27543     0.07576    -0.17600     0.03955     0.07291    -0.02623
  
  S  H  20  -0.19277    -0.11682     0.13322    -0.00221    -0.05564    -0.03486
  
  S  C  21  -0.00087     0.09863     0.04091    -0.02623    -0.03632     0.01388
 PX  C  21  -0.09756    -0.04399     0.08691    -0.02503     0.15238     0.02652
 PY  C  21   0.14176     0.02671     0.24538     0.04303     0.10512    -0.05301
 PZ  C  21  -0.04512     0.05723    -0.01972     0.13845     0.09398     0.22277
  
  S  C  22   0.02585    -0.01687    -0.02789     0.00604     0.05193    -0.00588
 PX  C  22  -0.01281    -0.26070    -0.09550     0.10269    -0.11016    -0.03691
 PY  C  22  -0.07652     0.08136    -0.27508    -0.06508    -0.08407     0.06602
 PZ  C  22  -0.04236     0.07837    -0.01330     0.09847     0.11609     0.23046
  
  S  C  23  -0.03908     0.02970     0.02437    -0.02180     0.05538    -0.00061
 PX  C  23   0.03917     0.27482     0.07837    -0.02896    -0.08852     0.13540
 PY  C  23   0.06474    -0.07089     0.27801     0.07889    -0.06083    -0.04850
 PZ  C  23  -0.04021     0.01929    -0.02078     0.12443     0.11171     0.21729
  
  S  C  24  -0.00615    -0.02973    -0.12269     0.00123    -0.02668     0.01259
 PX  C  24  -0.05144    -0.24192    -0.01206     0.03603     0.13282    -0.10983
 PY  C  24   0.14181     0.06389     0.06819     0.03133     0.04458     0.03823
 PZ  C  24  -0.03871     0.05524    -0.01541     0.15552     0.09113     0.23909
  
  S  H  25  -0.14818     0.00804    -0.13401    -0.05563    -0.03815     0.06549
  
  S  H  26   0.00240    -0.24243    -0.12033     0.08026    -0.10453    -0.05871
  
  S  H  27   0.05093     0.08655     0.26800     0.02976    -0.07978     0.01202
  
  S  H  28   0.11844     0.14868    -0.00168     0.01068    -0.04630     0.09926
  
  S  C  29  -0.00408    -0.05443     0.01056     0.02492     0.02400    -0.01187
 PX  C  29   0.09773     0.09721    -0.06636     0.02733    -0.16211    -0.00265
 PY  C  29   0.08940    -0.05554     0.14431     0.10525    -0.20752     0.08318
 PZ  C  29  -0.08288     0.07354    -0.00652     0.24626     0.11361     0.25826
  
  S  C  30   0.03543    -0.00968     0.07169     0.01189     0.02948    -0.00378
 PX  C  30  -0.09329    -0.09756    -0.01159     0.02890    -0.22858     0.06573
 PY  C  30  -0.06802     0.10043    -0.12929    -0.09288    -0.02030    -0.04676
 PZ  C  30  -0.08485     0.08579    -0.01792     0.25228     0.09130     0.26515




    ROOT NO.   31          32          33          34          35          36

           -13.03463   -12.81391   -12.25255   -11.87383   -11.71912   -11.30169
  
  
  S  C   1   0.00882    -0.01056    -0.00225     0.00940     0.00643     0.01024
 PX  C   1   0.04871     0.25683    -0.02864     0.07739    -0.05417     0.11250
 PY  C   1  -0.24326     0.02293     0.15172    -0.05995     0.09080     0.05690
 PZ  C   1  -0.11828    -0.02901    -0.08152     0.15248     0.27926     0.02113
  
  S  C   2  -0.01511     0.01185    -0.02909     0.02404    -0.03401    -0.03951
 PX  C   2  -0.05242    -0.24942    -0.00909    -0.04578     0.05236    -0.13481
 PY  C   2   0.17770    -0.05155    -0.19119     0.09551    -0.12233    -0.12718
 PZ  C   2  -0.11013    -0.00277    -0.07018     0.11849     0.20130     0.02846
  
  S  C   3   0.00950    -0.02229     0.01144    -0.00303     0.00163     0.01658
 PX  C   3  -0.02799     0.17036    -0.01293     0.12631    -0.13249     0.14008
 PY  C   3  -0.10144     0.06189     0.23475    -0.18091     0.16700     0.13617
 PZ  C   3  -0.17110     0.01893     0.02257     0.00402     0.08498     0.04470
  
  S  C   4   0.00215     0.04840     0.01386    -0.00179     0.00398    -0.01296
 PX  C   4  -0.00071    -0.23340     0.07569    -0.12350     0.15833    -0.16142
 PY  C   4   0.08408    -0.04678    -0.19746     0.18246    -0.15288    -0.16813
 PZ  C   4  -0.14934    -0.01888    -0.01680     0.02643     0.03959    -0.02097
  
  S  C   5  -0.01645    -0.02702    -0.02010     0.03083    -0.02222     0.01798
 PX  C   5  -0.00020     0.26429    -0.05252     0.10243    -0.15023     0.15638
 PY  C   5  -0.19188     0.08581     0.11718    -0.04361     0.07361     0.09170
 PZ  C   5  -0.11017     0.01167    -0.07736     0.13262     0.16077     0.01279
  
  S  C   6  -0.01855     0.00223     0.01427    -0.00650     0.00806    -0.01292
 PX  C   6  -0.05311    -0.27950     0.04436    -0.06623     0.08542    -0.11233
 PY  C   6   0.24387    -0.06809    -0.14161     0.04839    -0.07779    -0.09690
 PZ  C   6  -0.10999    -0.00908    -0.08974     0.16472     0.25550     0.02006
  
  S  C   7  -0.02727     0.06740     0.00137     0.03450    -0.03073    -0.03188
 PX  C   7   0.00841    -0.13844    -0.00041    -0.08883     0.10687    -0.16979
 PY  C   7  -0.16556    -0.04660    -0.07825     0.13936    -0.10301    -0.17054
 PZ  C   7  -0.09416    -0.02448     0.06026    -0.10365    -0.07454    -0.02603
  
  S  C   8   0.00884    -0.07948    -0.01749     0.02940    -0.04657     0.00569
 PX  C   8  -0.13850     0.05759     0.00904     0.11675    -0.11999     0.19838
 PY  C   8   0.00846     0.09775     0.12259    -0.14455     0.10074     0.14866
 PZ  C   8  -0.08376    -0.01090     0.04743    -0.08288    -0.14311    -0.02403
  
  S  C   9   0.02641     0.06871     0.00629     0.00889     0.01036    -0.00478
 PX  C   9   0.14742     0.00741     0.00902    -0.14038     0.16724    -0.19029
 PY  C   9  -0.22823    -0.03519     0.05679     0.19359    -0.11412    -0.21456
 PZ  C   9   0.00940    -0.02040     0.10572    -0.19278    -0.25311    -0.05374
  
  S  C  10   0.04453    -0.04585     0.00990    -0.00705    -0.00410     0.00809
 PX  C  10  -0.07957    -0.02789     0.09440     0.15572    -0.09466     0.17768
 PY  C  10   0.25306     0.10296     0.01441    -0.19521     0.14720     0.19074
 PZ  C  10  -0.00176    -0.02684     0.11141    -0.18427    -0.23049    -0.01246
  
  S  C  11  -0.01515     0.06269     0.03450     0.04034    -0.01747    -0.00590
 PX  C  11   0.05808     0.07428    -0.06723    -0.12829     0.08946    -0.18729
 PY  C  11  -0.10007     0.04154     0.14496     0.10294    -0.02867    -0.15627
 PZ  C  11   0.06286    -0.02140     0.04903    -0.08258    -0.11412     0.00498
  
  S  H  12   0.10503     0.03372    -0.15036    -0.15534     0.06587     0.04736
  
  S  C  13   0.00041    -0.07985     0.00206     0.03981    -0.02349    -0.01863
 PX  C  13  -0.03001    -0.13593     0.08308     0.06137    -0.09448     0.22037
 PY  C  13   0.14566     0.03844    -0.09783    -0.12781     0.04138     0.18339
 PZ  C  13   0.06292    -0.01858     0.06444    -0.07686    -0.13468    -0.06002
  
  S  H  14   0.12653     0.00627     0.07036    -0.16799     0.14278     0.06304
  
  S  H  15   0.17769    -0.16885    -0.11608     0.01146    -0.04127    -0.11423
  
  S  H  16  -0.17204    -0.07259     0.15064    -0.10732     0.11707     0.02602
  
  S  H  17  -0.15829    -0.07061     0.13100    -0.09756     0.12202     0.01326
  
  S  H  18   0.04424     0.28046    -0.03826     0.06443    -0.08292     0.11512
  
  S  H  19   0.07451     0.01931     0.09183    -0.17667     0.14380     0.05412
  
  S  H  20   0.13791     0.05508    -0.13176    -0.14764     0.07404     0.05453
  
  S  C  21  -0.00565     0.01236     0.04065     0.02837    -0.01221     0.02234
 PX  C  21  -0.10289     0.20564    -0.15609    -0.11349     0.05175    -0.17485
 PY  C  21   0.10489     0.10085     0.15137     0.06931     0.04190    -0.08705
 PZ  C  21   0.06519    -0.02924    -0.06766     0.14931     0.16263     0.05777
  
  S  C  22  -0.02191    -0.01694    -0.01958    -0.00861    -0.00262    -0.00722
 PX  C  22   0.17611    -0.18040     0.10896     0.10664     0.01516     0.12101
 PY  C  22  -0.16432    -0.11831    -0.17938    -0.08785    -0.06612     0.09897
 PZ  C  22   0.02905    -0.01048    -0.12874     0.18710     0.23515     0.07709
  
  S  C  23  -0.01831     0.00922    -0.01524    -0.00251    -0.00123     0.01556
 PX  C  23  -0.08940     0.20779    -0.08101    -0.02796     0.06950    -0.13563
 PY  C  23   0.21323     0.11466     0.21475     0.10490     0.06455    -0.07739
 PZ  C  23   0.07288    -0.06247    -0.09915     0.21682     0.23174     0.11408
  
  S  C  24  -0.01448    -0.02306     0.02627     0.02696     0.00682    -0.04045
 PX  C  24   0.07972    -0.20915     0.02704     0.02349    -0.05833     0.17830
 PY  C  24  -0.12880    -0.11528    -0.23657    -0.12325    -0.07268     0.15690
 PZ  C  24   0.06902    -0.04547    -0.08194     0.15665     0.16111     0.06503
  
  S  H  25  -0.13816     0.02156    -0.19800    -0.11254    -0.01363     0.00268
  
  S  H  26   0.14356    -0.19304     0.09926     0.07151    -0.02126     0.12326
  
  S  H  27   0.12338     0.21434     0.14543     0.06006     0.07879    -0.14697
  
  S  H  28  -0.14663     0.00067    -0.21466    -0.11102    -0.01993     0.02758
  
  S  C  29   0.00977    -0.04198    -0.01096     0.00500    -0.00301    -0.00605
 PX  C  29   0.11621    -0.17982     0.18918     0.14162    -0.04498     0.17301
 PY  C  29   0.03948    -0.03055    -0.23772    -0.14094     0.00736     0.16633
 PZ  C  29   0.09667    -0.01133     0.00753     0.04693     0.02382    -0.02439
  
  S  C  30  -0.00494     0.03717    -0.00212     0.00251    -0.00327     0.01378
 PX  C  30   0.05388     0.19404    -0.08651    -0.08738     0.11030    -0.20060
 PY  C  30   0.05150     0.09009     0.30527     0.17396     0.02939    -0.16004
 PZ  C  30   0.10652    -0.02207     0.02370     0.06206     0.01488    -0.03742




    ROOT NO.   37          38          39          40          41          42

           -10.67857    -9.95886    -9.60876    -8.26022    -8.05158    -6.70789
  
  
  S  C   1  -0.00367     0.01276     0.00150     0.00340     0.00994     0.00497
 PX  C   1  -0.00102     0.03150    -0.00917     0.01624     0.02123     0.01485
 PY  C   1  -0.01184     0.01116     0.00626    -0.00255     0.00131    -0.00204
 PZ  C   1   0.08721     0.33006    -0.18729     0.23396     0.25174     0.19956
  
  S  C   2  -0.00592    -0.00428     0.01806    -0.02293     0.00120    -0.01720
 PX  C   2   0.01547    -0.01549    -0.01223     0.00549    -0.01238     0.00303
 PY  C   2  -0.00199    -0.01732     0.02659    -0.03347    -0.00347    -0.02202
 PZ  C   2   0.19280     0.08122    -0.33958     0.34182    -0.04011     0.23871
  
  S  C   3  -0.00804    -0.00714     0.00474    -0.00126    -0.00498    -0.00468
 PX  C   3  -0.01486     0.02723     0.00940     0.00020     0.03500     0.00182
 PY  C   3  -0.04326     0.03214     0.03118    -0.00323     0.02954     0.01197
 PZ  C   3   0.20617    -0.27775    -0.22199     0.02902    -0.34346    -0.13801
  
  S  C   4   0.00736    -0.00287    -0.00844     0.00795     0.00516     0.00438
 PX  C   4   0.00018     0.00347     0.00326    -0.00304     0.01751    -0.00794
 PY  C   4   0.04134     0.00208    -0.02849     0.00423     0.02361    -0.01376
 PZ  C   4  -0.22586    -0.22849     0.26256    -0.08267    -0.34914     0.12667
  
  S  C   5  -0.00709     0.00795     0.01498    -0.01977    -0.00200    -0.01601
 PX  C   5   0.02032    -0.00297    -0.03155     0.02352    -0.00476     0.01490
 PY  C   5  -0.02541     0.01653     0.02501    -0.01768    -0.00262    -0.00888
 PZ  C   5  -0.19564     0.14931     0.33741    -0.34920     0.00362    -0.24911
  
  S  C   6   0.00575    -0.00302    -0.00878     0.00842     0.00119     0.00496
 PX  C   6   0.00061    -0.00545     0.00197    -0.00146     0.00088    -0.00189
 PY  C   6   0.01658    -0.01936    -0.01261     0.00952    -0.00312     0.00675
 PZ  C   6  -0.08780     0.36256     0.16080    -0.19515     0.27739    -0.18779
  
  S  C   7  -0.00248     0.00873     0.00283     0.00270     0.00697     0.00826
 PX  C   7  -0.02352     0.01421     0.01911     0.01285    -0.01122     0.03306
 PY  C   7  -0.00280     0.00897    -0.00287     0.01527    -0.00135     0.01845
 PZ  C   7   0.33525    -0.24794    -0.19261    -0.20244     0.02700    -0.37536
  
  S  C   8  -0.01563    -0.00626     0.00546     0.01221    -0.00470     0.01674
 PX  C   8   0.01901     0.03052    -0.01921    -0.01235    -0.00641    -0.02728
 PY  C   8  -0.02164     0.00451     0.00925    -0.00097    -0.00617     0.00281
 PZ  C   8  -0.34409    -0.19262     0.21872     0.19003    -0.01724     0.37730
  
  S  C   9  -0.00044    -0.00357    -0.00146     0.00081    -0.00079    -0.00692
 PX  C   9  -0.00143    -0.02382     0.01034    -0.00026    -0.00137     0.00975
 PY  C   9   0.00515    -0.00774    -0.00121     0.01001     0.02957     0.00218
 PZ  C   9  -0.27096    -0.01510    -0.00884     0.23639     0.35385     0.01872
  
  S  C  10   0.02288    -0.00744     0.00199    -0.00916     0.01543     0.00136
 PX  C  10  -0.01374     0.00931     0.00265     0.01156    -0.01711    -0.00875
 PY  C  10  -0.02248    -0.00183     0.00758    -0.00008    -0.01505    -0.00297
 PZ  C  10   0.28782    -0.03389     0.00611    -0.20689     0.39334    -0.00780
  
  S  C  11   0.00445    -0.00045     0.00046    -0.00464     0.00129     0.00606
 PX  C  11   0.00948    -0.00595    -0.00051    -0.01051     0.01234     0.01260
 PY  C  11   0.03730     0.00454     0.01442    -0.01787     0.01195     0.02679
 PZ  C  11   0.36275     0.20887     0.20970    -0.20192     0.01561     0.36018
  
  S  H  12  -0.01726     0.00137    -0.00743     0.00276    -0.00766    -0.00703
  
  S  C  13   0.01205    -0.00053     0.00668    -0.00498    -0.00173     0.01319
 PX  C  13  -0.01235     0.03083    -0.00884     0.00540    -0.01352    -0.01316
 PY  C  13  -0.00325     0.00672    -0.00158    -0.00501    -0.01239    -0.00115
 PZ  C  13  -0.32094     0.20954    -0.23585     0.20659    -0.00143    -0.36398
  
  S  H  14  -0.00885     0.00225     0.01168    -0.00912    -0.00460    -0.00055
  
  S  H  15   0.01152    -0.02337    -0.00246    -0.00379    -0.01199    -0.00376
  
  S  H  16   0.00040     0.00289    -0.01185     0.01485    -0.00222     0.01070
  
  S  H  17  -0.01682     0.00528     0.01060     0.00068    -0.00203     0.00614
  
  S  H  18   0.00120     0.00629    -0.00512     0.00437     0.00007     0.00386
  
  S  H  19  -0.01253     0.00105     0.00593    -0.00573    -0.00439    -0.00582
  
  S  H  20  -0.00725     0.00055    -0.00355     0.00011    -0.00880    -0.00632
  
  S  C  21  -0.00431     0.00693    -0.00647    -0.00802    -0.00661     0.00560
 PX  C  21   0.00738    -0.01002     0.00237     0.00414     0.00889    -0.00353
 PY  C  21   0.00180    -0.01359     0.00273     0.00306     0.00415    -0.00237
 PZ  C  21   0.17764    -0.10027     0.34589     0.37933    -0.02852    -0.23408
  
  S  C  22   0.00238    -0.00303     0.00416     0.00667     0.00432    -0.00589
 PX  C  22   0.00851    -0.04205     0.03247     0.03520     0.02455    -0.02262
 PY  C  22  -0.00320     0.03069    -0.00856    -0.00911    -0.01506     0.00631
 PZ  C  22   0.05681    -0.32456     0.19995     0.25023     0.22085    -0.18209
  
  S  C  23  -0.00892    -0.00616    -0.01278    -0.01230     0.00728     0.00695
 PX  C  23  -0.00955    -0.03933    -0.01892    -0.03109     0.02391     0.02660
 PY  C  23   0.00254    -0.02032     0.00626     0.00382     0.00410    -0.00168
 PZ  C  23  -0.11720    -0.33191    -0.14744    -0.22011     0.23569     0.18810
  
  S  C  24  -0.00307    -0.00996    -0.00691    -0.01082     0.00362     0.00785
 PX  C  24  -0.00779     0.01904    -0.00560     0.00131    -0.01013    -0.00490
 PY  C  24   0.01012     0.03345     0.01814     0.02428    -0.01014    -0.01505
 PZ  C  24  -0.19909    -0.11103    -0.31887    -0.36488    -0.00311     0.22315
  
  S  H  25   0.00036     0.01125    -0.00244    -0.00164    -0.00378     0.00112
  
  S  H  26   0.00319     0.00050     0.01143     0.00907    -0.00443    -0.00309
  
  S  H  27   0.00299    -0.01878     0.00307    -0.00011     0.00158     0.00089
  
  S  H  28   0.00547     0.01420     0.00642     0.00557    -0.00627    -0.00115
  
  S  C  29   0.00214    -0.00704     0.00160     0.00395     0.00950    -0.00495
 PX  C  29   0.01017     0.01888     0.01987     0.00956    -0.02459     0.00246
 PY  C  29  -0.00455     0.02261     0.00567     0.00771    -0.02571    -0.00287
 PZ  C  29   0.24088     0.28281     0.22554     0.03278    -0.33308     0.14034
  
  S  C  30  -0.00123    -0.00619     0.00091     0.00302     0.00945    -0.00211
 PX  C  30   0.00756    -0.03316     0.00832    -0.00156     0.01568     0.00895
 PY  C  30   0.01314    -0.03666     0.01139    -0.00289     0.02664     0.01049
 PZ  C  30  -0.18844     0.27756    -0.25074    -0.05752    -0.33156    -0.15393




    ROOT NO.   43          44          45          46          47          48

            -1.01007     0.25757     0.26865     1.21171     1.47533     1.83992
  
  
  S  C   1  -0.00012     0.01670     0.00034    -0.01859    -0.01416     0.01530
 PX  C   1   0.00814     0.01013    -0.01218    -0.00075    -0.01232     0.00017
 PY  C   1  -0.00507     0.00156     0.00597    -0.00380     0.00223     0.00288
 PZ  C   1   0.20262     0.06383    -0.34321     0.17656    -0.33574    -0.07728
  
  S  C   2   0.01510    -0.02399    -0.02161     0.03844    -0.00533    -0.02546
 PX  C   2  -0.00795     0.00333     0.00340    -0.00165    -0.00293     0.00251
 PY  C   2   0.01527    -0.01880    -0.02123     0.02923    -0.00681    -0.01717
 PZ  C   2  -0.25317     0.22799     0.27326    -0.31758     0.09052     0.19667
  
  S  C   3  -0.00263     0.01014     0.01517    -0.03088     0.00544     0.02017
 PX  C   3   0.02271     0.01985    -0.01918    -0.01016    -0.02407     0.00166
 PY  C   3   0.01484     0.01912    -0.01777    -0.01322    -0.02146     0.02030
 PZ  C   3  -0.12666    -0.30468     0.16481     0.22411     0.27316    -0.23994
  
  S  C   4  -0.00471    -0.00204     0.00321     0.01776    -0.00537    -0.03268
 PX  C   4  -0.00358    -0.00691     0.01994    -0.01220     0.00391     0.00947
 PY  C   4   0.00331    -0.01272     0.01868    -0.01053     0.00645     0.00339
 PZ  C   4  -0.13236     0.23386    -0.28652     0.25562    -0.23256    -0.23375
  
  S  C   5  -0.01219     0.01485     0.01621    -0.03063    -0.01010     0.03417
 PX  C   5   0.01659    -0.00949    -0.02258     0.01680     0.00874    -0.00603
 PY  C   5  -0.01179     0.01178     0.01168    -0.01529    -0.00821     0.01133
 PZ  C   5  -0.24783     0.20902     0.28110    -0.30559    -0.14880     0.20765
  
  S  C   6   0.00005    -0.00259     0.00096     0.00523     0.00430    -0.01030
 PX  C   6  -0.00088    -0.00356     0.00179     0.00363     0.00457    -0.00463
 PY  C   6   0.00248     0.00150    -0.00631     0.00501    -0.00593    -0.00567
 PZ  C   6   0.20297    -0.34000    -0.00047     0.14197     0.36611    -0.10326
  
  S  C   7  -0.00359    -0.01799    -0.00676     0.02444    -0.00012     0.00308
 PX  C   7  -0.03935     0.00577     0.01865     0.00771     0.01928    -0.01035
 PY  C   7  -0.02083    -0.00573     0.00669     0.01089     0.00848    -0.00055
 PZ  C   7   0.36886    -0.13069    -0.14218    -0.18185    -0.23315     0.35402
  
  S  C   8   0.02371    -0.00759    -0.01203    -0.01783     0.02694     0.03412
 PX  C   8  -0.02056     0.01254     0.00623     0.01199    -0.00567    -0.02670
 PY  C   8   0.00071     0.00125    -0.00135    -0.00120    -0.00009     0.00126
 PZ  C   8   0.36048    -0.11948    -0.13232    -0.21027     0.18672     0.34252
  
  S  C   9  -0.01021    -0.01492     0.00332     0.01161    -0.02461     0.00883
 PX  C   9   0.00663    -0.00918    -0.01211    -0.00276     0.00118     0.02515
 PY  C   9  -0.00776     0.00290     0.01036     0.00034    -0.00393    -0.01486
 PZ  C   9  -0.00906    -0.14082     0.40889    -0.01268    -0.02359    -0.27593
  
  S  C  10   0.00213     0.03831     0.00276    -0.01606     0.01325    -0.03722
 PX  C  10   0.00710    -0.01758     0.00056     0.00216    -0.00589     0.00569
 PY  C  10   0.00995    -0.00866    -0.00299     0.00105     0.00316     0.00093
 PZ  C  10  -0.01648     0.44722    -0.06422    -0.01198     0.03738    -0.29427
  
  S  C  11  -0.00317    -0.02131     0.00076     0.01194    -0.01556     0.02482
 PX  C  11  -0.01021     0.01106     0.00054     0.00121     0.00543    -0.00602
 PY  C  11  -0.02040    -0.00916    -0.00414     0.01310     0.00431     0.01893
 PZ  C  11  -0.35924    -0.14983    -0.15038     0.21713     0.20617     0.34450
  
  S  H  12   0.00547     0.00792    -0.00416    -0.00788     0.01030    -0.00949
  
  S  C  13   0.01801     0.01455     0.00629    -0.01469     0.02867    -0.01796
 PX  C  13  -0.00337     0.00145    -0.00115     0.00674     0.00245     0.00615
 PY  C  13   0.00483     0.00046     0.00309    -0.00173     0.00031    -0.00534
 PZ  C  13  -0.36006    -0.12993    -0.15665     0.24829    -0.19218     0.30362
  
  S  H  14   0.00131     0.00748    -0.00252    -0.00943    -0.00138     0.00385
  
  S  H  15   0.00061    -0.01309    -0.00301     0.01723     0.00987    -0.01351
  
  S  H  16  -0.00757     0.01003     0.01010    -0.01857     0.00379     0.01556
  
  S  H  17   0.00710    -0.01076    -0.01426     0.02544     0.01015    -0.02556
  
  S  H  18   0.00492    -0.00152    -0.00809     0.00434    -0.00069     0.00155
  
  S  H  19  -0.01181     0.00608     0.00245     0.01283    -0.01692    -0.02060
  
  S  H  20  -0.00518    -0.00790    -0.00812     0.00944    -0.01248     0.02033
  
  S  C  21  -0.00222    -0.01577    -0.00561    -0.00910    -0.01194     0.00350
 PX  C  21   0.00770     0.01604     0.01298     0.01357     0.00013     0.00005
 PY  C  21   0.00368     0.00348     0.00563     0.00616    -0.00508     0.00204
 PZ  C  21   0.23289     0.24494     0.27438     0.36059    -0.08056     0.16680
  
  S  C  22  -0.00155     0.01238    -0.00505     0.00172     0.02348    -0.00033
 PX  C  22  -0.02504    -0.00464    -0.04001    -0.02931     0.03062    -0.00825
 PY  C  22   0.00716    -0.00028     0.00801     0.00661    -0.00222     0.00595
 PZ  C  22  -0.19978     0.00963    -0.33062    -0.22116     0.31462    -0.05723
  
  S  C  23  -0.01448    -0.02375    -0.00751    -0.01824    -0.03548    -0.01496
 PX  C  23  -0.01094    -0.02448     0.00411    -0.00722    -0.02603    -0.00498
 PY  C  23   0.00092     0.00253    -0.00002     0.00101     0.00234    -0.00027
 PZ  C  23  -0.18425    -0.31135    -0.01990    -0.13710    -0.34502    -0.09905
  
  S  C  24   0.01171     0.02076     0.00622     0.01749     0.03762     0.01730
 PX  C  24   0.00696     0.01056     0.00691     0.01099     0.00747     0.00559
 PY  C  24  -0.01170    -0.01326    -0.00902    -0.01400    -0.01502    -0.01055
 PZ  C  24   0.22812     0.22309     0.27372     0.32612     0.13466     0.17859
  
  S  H  25   0.00536     0.00702     0.00879     0.01013     0.00215     0.00182
  
  S  H  26   0.00350    -0.00600     0.00651     0.00356    -0.01687     0.00283
  
  S  H  27   0.01148     0.01542     0.00859     0.01483     0.02080     0.01125
  
  S  H  28  -0.00122    -0.01116    -0.00001    -0.01057    -0.02148    -0.01086
  
  S  C  29  -0.00492     0.01886    -0.00619    -0.00259     0.02610    -0.01076
 PX  C  29   0.00683    -0.01686     0.00683    -0.00851    -0.01588    -0.00726
 PY  C  29   0.00997    -0.01089     0.00119    -0.01010    -0.00275    -0.00272
 PZ  C  29   0.15293    -0.27865     0.17690    -0.23775    -0.30325    -0.23011
  
  S  C  30  -0.01096    -0.01554     0.00502     0.00329    -0.03700    -0.00217
 PX  C  30  -0.00015    -0.00718     0.00221    -0.00517    -0.00667    -0.00331
 PY  C  30  -0.01259    -0.01000     0.00374     0.00664    -0.01081     0.00261
 PZ  C  30   0.14668     0.22555    -0.25335    -0.28105     0.27237    -0.18344




    ROOT NO.   49          50          51          52          53          54

             2.41589     2.49381     2.86850     3.13398     3.30584     3.42905
  
  
  S  C   1   0.06215     0.11367    -0.21062    -0.04710    -0.21080    -0.19015
 PX  C   1   0.01023     0.01781    -0.00757    -0.01235     0.02830    -0.05468
 PY  C   1   0.00341     0.01218    -0.02402     0.01213    -0.03061     0.06254
 PZ  C   1  -0.27718     0.18048    -0.02970     0.23796     0.02827    -0.03407
  
  S  C   2  -0.10611    -0.12568     0.21378     0.07725     0.13297     0.21735
 PX  C   2  -0.01192    -0.01167    -0.01087    -0.00249    -0.06086    -0.01697
 PY  C   2  -0.04517    -0.03860     0.05145     0.02400     0.00102     0.02490
 PZ  C   2   0.18387    -0.16349     0.06845    -0.23919    -0.00601     0.06671
  
  S  C   3   0.14318     0.21254    -0.27232    -0.05365    -0.05591    -0.15126
 PX  C   3   0.01146     0.00490     0.06130    -0.02422     0.10202    -0.07216
 PY  C   3   0.01076     0.03281    -0.02655     0.01233     0.00741     0.13487
 PZ  C   3  -0.05857     0.06732    -0.04605     0.30774     0.02043    -0.02854
  
  S  C   4  -0.11671    -0.21769     0.28040    -0.02132     0.09816    -0.21715
 PX  C   4  -0.02569    -0.01565    -0.02136     0.02703    -0.07437     0.04380
 PY  C   4   0.01074     0.02114    -0.06705    -0.01775    -0.04865    -0.12802
 PZ  C   4   0.04952    -0.02497    -0.00062    -0.30561    -0.03716     0.03153
  
  S  C   5   0.06041     0.16967    -0.25642     0.04378    -0.18930     0.19686
 PX  C   5   0.04397     0.04788    -0.05004    -0.01221     0.01561     0.07213
 PY  C   5  -0.01242     0.00152     0.01740     0.01859     0.03627     0.01993
 PZ  C   5  -0.20902     0.09129     0.02231     0.24613     0.05145    -0.03832
  
  S  C   6  -0.04569    -0.11143     0.20527    -0.00667     0.22172    -0.05497
 PX  C   6  -0.01117    -0.02935     0.04009     0.00000     0.02251     0.00932
 PY  C   6  -0.00633    -0.01444     0.01100    -0.02056    -0.01055    -0.11192
 PZ  C   6   0.28423    -0.15874     0.00821    -0.23840    -0.03351     0.03016
  
  S  C   7  -0.15062    -0.21188     0.13135     0.04635    -0.16773     0.21868
 PX  C   7   0.01006     0.00776    -0.09564    -0.00215    -0.10506    -0.00100
 PY  C   7  -0.03078    -0.04078    -0.02826     0.00265    -0.08352     0.02090
 PZ  C   7  -0.10929     0.04142     0.02651    -0.15625    -0.01312    -0.00839
  
  S  C   8   0.11939     0.18590    -0.11799     0.04759     0.11977     0.26397
 PX  C   8   0.00930     0.03344     0.06510    -0.00236     0.12571     0.01864
 PY  C   8  -0.01902    -0.03979     0.06746     0.00127     0.03669    -0.03339
 PZ  C   8   0.13412    -0.09176     0.02831     0.14995     0.02071    -0.02814
  
  S  C   9  -0.13750    -0.23063    -0.01103    -0.04255    -0.32696    -0.21534
 PX  C   9  -0.00281    -0.02645    -0.07154     0.01053    -0.05394     0.07019
 PY  C   9   0.03325     0.02667    -0.03601    -0.01138     0.11451    -0.12335
 PZ  C   9  -0.31212     0.15197    -0.02502    -0.01074    -0.02832    -0.02779
  
  S  C  10   0.18461     0.23794     0.01995    -0.00725     0.38180    -0.16352
 PX  C  10  -0.01713    -0.00134     0.07774     0.00015    -0.03576    -0.06801
 PY  C  10  -0.00204     0.02094     0.04616     0.02728     0.06677     0.13845
 PZ  C  10   0.25913    -0.16362    -0.00529     0.01520    -0.02663     0.06608
  
  S  C  11  -0.14066    -0.21953    -0.15326    -0.00464    -0.16407     0.21551
 PX  C  11   0.03863     0.02568    -0.06426    -0.00371     0.15512    -0.01820
 PY  C  11  -0.01607    -0.03178    -0.06671     0.00239     0.07266     0.00677
 PZ  C  11  -0.12762     0.06880     0.00088     0.14066    -0.01596    -0.06698
  
  S  H  12   0.07443     0.12447     0.09466     0.01017     0.11563    -0.09883
  
  S  C  13   0.08230     0.21804     0.13799     0.04380     0.06854     0.26607
 PX  C  13  -0.00682     0.01901     0.08715    -0.00712    -0.12360    -0.00110
 PY  C  13  -0.03018    -0.03371     0.02055    -0.00584    -0.08214    -0.02514
 PZ  C  13   0.17770    -0.03571     0.02882    -0.14488     0.05081     0.05469
  
  S  H  14   0.07878     0.12014    -0.08395    -0.02146     0.10629    -0.09240
  
  S  H  15  -0.04446    -0.07808     0.14286     0.03652     0.14006     0.14933
  
  S  H  16   0.05145     0.06143    -0.11745    -0.03850    -0.08602    -0.09579
  
  S  H  17  -0.03038    -0.10526     0.16676    -0.03216     0.13165    -0.09902
  
  S  H  18   0.03013     0.06533    -0.12073     0.00283    -0.13315     0.05225
  
  S  H  19  -0.06779    -0.09344     0.06560    -0.02553    -0.08571    -0.10964
  
  S  H  20  -0.04935    -0.12866    -0.09145    -0.02592    -0.05068    -0.13193
  
  S  C  21  -0.07672    -0.17030    -0.24815     0.01619     0.19769     0.20188
 PX  C  21   0.04446     0.05777     0.06497     0.02257    -0.01208    -0.03468
 PY  C  21   0.00941    -0.00805    -0.01140     0.01746     0.02204    -0.00113
 PZ  C  21   0.19373    -0.11045     0.00262     0.24653    -0.04183    -0.02320
  
  S  C  22   0.02233     0.12016     0.17425    -0.05600    -0.17370    -0.11631
 PX  C  22  -0.04100    -0.01314    -0.03849    -0.02226     0.03451    -0.00938
 PY  C  22  -0.01920    -0.02039    -0.02680    -0.00923     0.00367     0.08872
 PZ  C  22  -0.30304     0.13261    -0.03559    -0.25058     0.06275     0.02311
  
  S  C  23   0.01173    -0.11666    -0.14702     0.06795     0.16121    -0.10430
 PX  C  23   0.02971     0.01213     0.02159     0.02601    -0.00791     0.07261
 PY  C  23   0.00742     0.01555     0.02620    -0.00393    -0.02404    -0.05227
 PZ  C  23   0.31530    -0.12771     0.05380     0.25777    -0.08571    -0.00678
  
  S  C  24   0.01028     0.15662     0.18746    -0.03265    -0.15858     0.20092
 PX  C  24  -0.02628    -0.01804    -0.01920    -0.03419    -0.00847    -0.03032
 PY  C  24  -0.00904    -0.05357    -0.05236    -0.00551     0.02450    -0.04063
 PZ  C  24  -0.21597     0.09627    -0.04117    -0.26269     0.08258     0.00448
  
  S  H  25   0.04264     0.09467     0.15176    -0.00663    -0.13972    -0.10449
  
  S  H  26  -0.01234    -0.07639    -0.10619     0.03751     0.10098     0.08523
  
  S  H  27  -0.00731     0.07409     0.09097    -0.04269    -0.10020     0.07898
  
  S  H  28  -0.00509    -0.08659    -0.11338     0.02317     0.10230    -0.09742
  
  S  C  29   0.11130     0.24113     0.29825     0.01593    -0.14797    -0.15132
 PX  C  29  -0.01426    -0.01449     0.02099    -0.02711    -0.06801    -0.07372
 PY  C  29  -0.01423     0.01934     0.05799     0.00105    -0.10163     0.12544
 PZ  C  29  -0.01036     0.04408     0.01498    -0.29846     0.04899     0.05998
  
  S  C  30  -0.06972    -0.23303    -0.26990    -0.03027     0.16379    -0.19317
 PX  C  30   0.00872    -0.00355    -0.05452     0.01698     0.08223     0.07818
 PY  C  30   0.03138     0.03135     0.03770     0.00762     0.00487    -0.10868
 PZ  C  30   0.00150    -0.05602    -0.01534     0.30655    -0.06775    -0.06430




    ROOT NO.   55          56          57          58          59          60

             3.57470     3.66552     3.82533     3.89161     4.20076     4.32036
  
  
  S  C   1   0.04362     0.39287    -0.05459     0.11589     0.07332     0.06916
 PX  C   1   0.00366    -0.08602     0.01274     0.10252     0.02020     0.10604
 PY  C   1  -0.00787     0.03702    -0.00313    -0.10479    -0.03780    -0.05596
 PZ  C   1  -0.12372     0.00111     0.01621     0.03296     0.00511    -0.00016
  
  S  C   2  -0.04208    -0.07176    -0.00092    -0.26523    -0.07446    -0.25855
 PX  C   2   0.01451     0.19506    -0.03315    -0.01870     0.02235    -0.00690
 PY  C   2  -0.00204     0.10737    -0.02351    -0.02290     0.01889     0.03151
 PZ  C   2   0.15142    -0.01999    -0.02209    -0.07549    -0.01701    -0.02568
  
  S  C   3  -0.00241    -0.31765     0.07589     0.21161     0.01677     0.02241
 PX  C   3   0.01782    -0.01640    -0.02235     0.00610     0.01673    -0.19578
 PY  C   3  -0.01047    -0.13140     0.02337    -0.12475    -0.05246    -0.03659
 PZ  C   3  -0.26734     0.03350     0.04139     0.05501     0.01383    -0.01685
  
  S  C   4   0.03286     0.30679    -0.07155     0.10146     0.06341    -0.10787
 PX  C   4  -0.02302     0.07814     0.01024    -0.13324    -0.05090    -0.15880
 PY  C   4  -0.00785    -0.09535     0.04574     0.10599     0.00757    -0.10372
 PZ  C   4   0.27057    -0.04685    -0.03936    -0.05849    -0.01836    -0.00304
  
  S  C   5  -0.03772     0.01325     0.03319    -0.29030    -0.11206    -0.24470
 PX  C   5   0.00339    -0.18314     0.03067     0.02222     0.00452     0.09416
 PY  C   5  -0.01796    -0.10190     0.01972    -0.00114    -0.01474    -0.02910
 PZ  C   5  -0.15319     0.01522     0.01674     0.06019     0.01967     0.03640
  
  S  C   6  -0.00776    -0.35274     0.04352     0.19389     0.03905     0.10827
 PX  C   6   0.00102     0.00314    -0.00529    -0.01250    -0.00339     0.02069
 PY  C   6   0.02015     0.10877    -0.02318     0.12383     0.05804     0.10251
 PZ  C   6   0.12254    -0.01184    -0.01323    -0.03289    -0.00770    -0.01039
  
  S  C   7  -0.00915     0.16898     0.02610    -0.13257    -0.06284     0.34764
 PX  C   7  -0.01784    -0.10951     0.05574     0.08617     0.00886     0.08069
 PY  C   7  -0.00385    -0.05583     0.03815     0.05215     0.02636    -0.05853
 PZ  C   7   0.24157    -0.03954    -0.03964    -0.03807    -0.01013     0.01083
  
  S  C   8  -0.01277    -0.06771    -0.07425    -0.09578    -0.00192     0.37816
 PX  C   8   0.04456     0.11226    -0.07975     0.02400     0.05615    -0.02307
 PY  C   8   0.00442     0.08012    -0.02382     0.02406     0.02402     0.03967
 PZ  C   8  -0.25479     0.06012     0.05007     0.05106     0.01828    -0.05017
  
  S  C   9  -0.05855    -0.15126     0.17605     0.04614    -0.15149    -0.09181
 PX  C   9  -0.03503    -0.06377    -0.00219    -0.05309    -0.03670     0.16388
 PY  C   9  -0.02181     0.00666    -0.07464    -0.06163    -0.13785    -0.00975
 PZ  C   9   0.33172    -0.06511    -0.07536    -0.04881    -0.02042     0.01765
  
  S  C  10   0.01073     0.11375    -0.14629    -0.05288    -0.06946    -0.10266
 PX  C  10  -0.00122     0.02542     0.05984    -0.07516    -0.17379     0.07172
 PY  C  10   0.02331     0.09682    -0.05444    -0.06364     0.04684     0.14870
 PZ  C  10  -0.31919     0.04153     0.08443     0.04757     0.01207     0.01185
  
  S  C  11  -0.01489    -0.08938    -0.08546     0.12949     0.36466    -0.07877
 PX  C  11  -0.00049     0.04027    -0.11833     0.03114     0.02884    -0.05599
 PY  C  11   0.00558     0.01708    -0.08334     0.01301    -0.07272    -0.00077
 PZ  C  11   0.23960    -0.04087    -0.05820    -0.02713    -0.01254    -0.00319
  
  S  H  12   0.02156     0.08267     0.05301    -0.07723    -0.32653     0.09215
  
  S  C  13   0.12411     0.11146     0.09098     0.11858     0.34178    -0.09293
 PX  C  13   0.00806    -0.01639     0.12044     0.07876    -0.08057    -0.02174
 PY  C  13   0.00913    -0.02454     0.06304     0.04973     0.03297    -0.04522
 PZ  C  13  -0.24052     0.05919     0.07437     0.03282     0.03556    -0.01404
  
  S  H  14   0.00941    -0.12919    -0.01979     0.07881     0.07549    -0.31729
  
  S  H  15  -0.03199    -0.26263     0.03585    -0.09827    -0.05941    -0.01536
  
  S  H  16   0.02381     0.04725     0.00051     0.14910     0.04477     0.21928
  
  S  H  17   0.03241    -0.00971    -0.02959     0.19437     0.08502     0.24355
  
  S  H  18   0.00746     0.22328    -0.03143    -0.13082    -0.02563    -0.02513
  
  S  H  19   0.01836     0.04441     0.05167     0.04301     0.02343    -0.30870
  
  S  H  20  -0.09093    -0.07432    -0.08377    -0.06950    -0.30400     0.10836
  
  S  C  21   0.08707     0.11003     0.02863     0.26236    -0.25046    -0.06699
 PX  C  21   0.04866     0.01875     0.19032     0.00708    -0.06162    -0.00646
 PY  C  21   0.03363     0.01653     0.10472    -0.00952     0.02043     0.00693
 PZ  C  21   0.13993    -0.02645    -0.06453     0.00916    -0.01286    -0.00572
  
  S  C  22  -0.15580    -0.11488    -0.36517    -0.13987     0.10618     0.03099
 PX  C  22  -0.00397     0.00759     0.02504    -0.02317    -0.00250     0.01304
 PY  C  22  -0.00775     0.01471    -0.11393     0.12853    -0.11063    -0.04039
 PZ  C  22  -0.10847     0.02839     0.06743    -0.00405     0.01058     0.00194
  
  S  C  23   0.12161     0.05235     0.40835    -0.15346     0.08472     0.05823
 PX  C  23   0.03913     0.02895     0.04538     0.10731    -0.11508    -0.01987
 PY  C  23  -0.02460    -0.02537    -0.03703    -0.07379     0.04257     0.02611
 PZ  C  23   0.10341    -0.03471    -0.10885     0.02197    -0.00966    -0.00925
  
  S  C  24  -0.02132     0.01599    -0.14257     0.30116    -0.28113    -0.06632
 PX  C  24  -0.06213    -0.03039    -0.16458    -0.02219     0.01822    -0.00955
 PY  C  24  -0.02986    -0.01560    -0.11174    -0.00867    -0.03792    -0.01645
 PZ  C  24  -0.14134     0.03357     0.08899    -0.03153     0.02705     0.00985
  
  S  H  25  -0.05423    -0.07587    -0.02386    -0.16986     0.22742     0.04389
  
  S  H  26   0.09907     0.07061     0.22758     0.09543    -0.03526    -0.02696
  
  S  H  27  -0.07280    -0.03057    -0.24727     0.10097    -0.01333    -0.04453
  
  S  H  28   0.02223    -0.00447     0.10169    -0.19161     0.24318     0.04217
  
  S  C  29   0.03165    -0.01419     0.30908    -0.11124    -0.06353     0.05169
 PX  C  29  -0.06654    -0.06100    -0.07074    -0.12644     0.15149     0.03094
 PY  C  29   0.02327    -0.00353     0.06708     0.10531     0.10931    -0.04218
 PZ  C  29  -0.25334     0.05124     0.09229     0.01253    -0.00491     0.00778
  
  S  C  30  -0.09967    -0.04972    -0.26390    -0.19593     0.01509     0.04062
 PX  C  30   0.03538     0.03195     0.00115    -0.00232     0.18312    -0.02500
 PY  C  30   0.00947    -0.00799     0.14859    -0.14177     0.06429     0.04754
 PZ  C  30   0.25352    -0.05956    -0.10012    -0.02003    -0.00957    -0.00119




    ROOT NO.   61          62          63          64          65          66

             5.24968     5.34443     5.49521     5.73579     6.16412     6.45034
  
  
  S  C   1  -0.05810    -0.23625    -0.00085    -0.11480     0.04792    -0.01802
 PX  C   1  -0.05840     0.14296     0.00449     0.19143    -0.12533     0.08286
 PY  C   1   0.17442     0.26962    -0.00366     0.05221    -0.02331     0.00896
 PZ  C   1   0.00389     0.00820    -0.00021     0.00077     0.00140    -0.00226
  
  S  C   2   0.08478    -0.18886    -0.00431    -0.23145     0.13961    -0.09502
 PX  C   2  -0.02522    -0.19653    -0.00055    -0.11577     0.05313    -0.02608
 PY  C   2   0.00421     0.03772     0.00125     0.10961    -0.14693     0.16280
 PZ  C   2   0.01476    -0.01192    -0.00034    -0.01837     0.00592     0.00055
  
  S  C   3  -0.03031     0.09703    -0.00410    -0.02364     0.12008    -0.14972
 PX  C   3   0.14710    -0.05404    -0.00808    -0.07612    -0.05459     0.09760
 PY  C   3   0.00605    -0.07552     0.00126    -0.13987     0.14730    -0.14102
 PZ  C   3   0.00406    -0.01189    -0.00101    -0.01412     0.00580    -0.00029
  
  S  C   4   0.04851     0.01013    -0.00328     0.09230    -0.14008     0.12849
 PX  C   4  -0.11750     0.00262     0.00608     0.11885    -0.06823     0.04454
 PY  C   4  -0.07287     0.12430    -0.00408     0.03261     0.12667    -0.18513
 PZ  C   4  -0.01212    -0.00451     0.00114     0.01025    -0.00541     0.00144
  
  S  C   5  -0.17785    -0.03337     0.00894     0.15903    -0.10188     0.06148
 PX  C   5  -0.03284    -0.03405    -0.00078    -0.08923     0.12361    -0.11002
 PY  C   5  -0.19640    -0.13649     0.00842     0.12832    -0.12710     0.10807
 PZ  C   5   0.03194     0.01790    -0.00164    -0.02574     0.02341    -0.01828
  
  S  C   6  -0.26109    -0.21804     0.00779     0.07194    -0.05149     0.03562
 PX  C   6   0.21684     0.22032    -0.00707    -0.06589     0.06756    -0.05100
 PY  C   6   0.05590    -0.06995    -0.00412    -0.12674     0.07920    -0.04402
 PZ  C   6  -0.01184    -0.01043     0.00047     0.00464    -0.00468     0.00421
  
  S  C   7  -0.20767     0.05935     0.01193     0.08679     0.06492    -0.12100
 PX  C   7  -0.08020     0.03370    -0.00347    -0.01135     0.09721    -0.13481
 PY  C   7   0.08140    -0.01992    -0.01895    -0.11201    -0.05066     0.26361
 PZ  C   7  -0.00382     0.00471     0.00006    -0.00066     0.00498    -0.00481
  
  S  C   8   0.17438    -0.15893     0.00171    -0.11149    -0.08768     0.15835
 PX  C   8  -0.02005    -0.00868    -0.00841     0.11608    -0.01628    -0.12326
 PY  C   8   0.05247    -0.06205     0.00078    -0.01943    -0.12009     0.22002
 PZ  C   8  -0.02002     0.02090    -0.00185     0.01582     0.01284    -0.02582
  
  S  C   9  -0.00047     0.05263     0.01321    -0.13710     0.03221     0.13801
 PX  C   9   0.12508    -0.09743    -0.00177    -0.07720    -0.06230     0.12737
 PY  C   9   0.08184    -0.06176     0.02469     0.10959    -0.06766    -0.16479
 PZ  C   9   0.01151    -0.01027     0.00191    -0.00446    -0.00592     0.00845
  
  S  C  10   0.01250    -0.00512     0.02366     0.13671    -0.02827    -0.17067
 PX  C  10  -0.12879     0.08769     0.01645    -0.07188     0.08517     0.07613
[...]
  S   H   18    0.0844   -0.0617   -0.0219   -0.0226    0.0237    0.3270   -0.0030    0.0934
  S   H   19    0.1253   -0.2694    0.2391    0.2597   -0.0101    0.0495   -0.0099   -0.1318
  S   H   20   -0.1861   -0.1878    0.2541   -0.0041    0.1687   -0.0061    0.0543    0.1021
  S   C   21   -0.1491   -0.0459   -0.0237    0.0130   -0.0059    0.0008    0.0538    0.0426
  Px  C   21   -0.1556   -0.0814   -0.2540    0.2586   -0.0213   -0.0004   -0.0905   -0.1492
  Py  C   21    0.1757    0.0730    0.0756   -0.0724    0.0155    0.0035    0.2427    0.0985
  Pz  C   21   -0.0035   -0.0002    0.0053   -0.0063    0.0002    0.0001    0.0039    0.0036
  S   C   22   -0.0840   -0.0212    0.0491   -0.0427    0.0058   -0.0015   -0.1056    0.0185
  Px  C   22   -0.0865   -0.0280    0.0552   -0.0438    0.0147    0.0075    0.4906   -0.0690
  Py  C   22   -0.1169   -0.0325   -0.0533    0.0550    0.0013   -0.0002   -0.0499    0.0695
  Pz  C   22    0.0143    0.0048   -0.0036    0.0022   -0.0014   -0.0009   -0.0566    0.0111
  S   C   23    0.0723    0.0156    0.0516   -0.0455    0.0051    0.0019    0.1315   -0.0480
  Px  C   23    0.1371    0.0381   -0.0186    0.0262    0.0074   -0.0041   -0.2034    0.0565
  Py  C   23    0.0186    0.0054    0.0648   -0.0524    0.0140   -0.0074   -0.4707    0.1361
  Pz  C   23   -0.0182   -0.0050   -0.0007   -0.0005   -0.0010    0.0003    0.0111   -0.0023
  S   C   24    0.1439    0.0405   -0.0241    0.0095   -0.0082   -0.0012   -0.0606   -0.0034
  Px  C   24   -0.0725   -0.0187   -0.0554    0.0627    0.0042   -0.0037   -0.2121    0.0794
  Py  C   24    0.1996    0.0978   -0.2692    0.2471   -0.0404    0.0041    0.2380    0.0506
  Pz  C   24    0.0039    0.0035   -0.0093    0.0097   -0.0009    0.0003    0.0159    0.0016
  S   H   25    0.2590    0.1024    0.1671   -0.1610    0.0220    0.0018    0.1517    0.0953
  S   H   26    0.1281    0.0391   -0.0442    0.0307   -0.0136   -0.0047   -0.3020    0.0407
  S   H   27   -0.1113   -0.0305   -0.0370    0.0228   -0.0130    0.0052    0.3061   -0.0891
  S   H   28   -0.2368   -0.0918    0.1760   -0.1490    0.0344   -0.0034   -0.1924   -0.0029
  S   C   29   -0.1738   -0.0877   -0.1912    0.2244    0.0080   -0.0004    0.0096    0.0010
  Px  C   29    0.1042    0.0367   -0.0673    0.1036    0.0181    0.0002   -0.0913   -0.1966
  Py  C   29   -0.1524   -0.1127    0.1028   -0.1430   -0.0334   -0.0034   -0.0272   -0.1197
  Pz  C   29   -0.0030    0.0012   -0.0007    0.0072    0.0039   -0.0000    0.0058    0.0140
  S   C   30    0.1657    0.0954   -0.2082    0.2235   -0.0001    0.0011   -0.0130    0.0095
  Px  C   30    0.0828    0.0691    0.0360   -0.0563   -0.0167    0.0033    0.0859    0.1087
  Py  C   30   -0.1671   -0.0776   -0.0940    0.1548    0.0310   -0.0013    0.0676    0.0593
  Pz  C   30   -0.0003   -0.0005   -0.0121    0.0092   -0.0038   -0.0000    0.0045    0.0049


   Root No.      73        74        75        76        77        78        79        80

                73 A      74 A      75 A      76 A      77 A      78 A      79 A      80 A   

                 9.422     9.614    10.120    10.643    11.121    11.735    11.764    12.205
  
  S   C    1    0.0711   -0.0729   -0.0588   -0.0628    0.0679    0.0205    0.0173    0.0158
  Px  C    1    0.1815   -0.2160    0.0162   -0.2221   -0.1330   -0.1542   -0.0168   -0.1973
  Py  C    1    0.1232   -0.0955   -0.1701   -0.0334    0.2290    0.1319    0.0423    0.1505
  Pz  C    1   -0.0102    0.0121    0.0004    0.0117    0.0033    0.0071   -0.0014    0.0102
  S   C    2   -0.0613    0.0720   -0.0471    0.0442    0.0921    0.0306    0.0398    0.0192
  Px  C    2    0.1962   -0.2297   -0.0365   -0.2376   -0.0253   -0.1214    0.0325   -0.1825
  Py  C    2   -0.1824    0.1852   -0.1716    0.0030    0.2413   -0.0055    0.1414   -0.0670
  Pz  C    2   -0.0200    0.0219   -0.0174    0.0073    0.0289    0.0050    0.0147   -0.0008
  S   C    3   -0.0203    0.0384    0.0072    0.0631    0.0219    0.0180    0.0049    0.0160
  Px  C    3   -0.1016    0.1346   -0.2256   -0.0338    0.0267    0.0899   -0.2419    0.1346
  Py  C    3   -0.0479    0.0296   -0.1176   -0.0534    0.3119   -0.1024    0.3447   -0.2340
  Pz  C    3   -0.0107    0.0114   -0.0231   -0.0066    0.0221   -0.0020    0.0063   -0.0073
  S   C    4   -0.0177    0.0416    0.0073    0.0516   -0.0426   -0.0202   -0.0142   -0.0137
  Px  C    4   -0.1809    0.0803    0.2283   -0.1661   -0.2442    0.0579   -0.1655    0.1910
  Py  C    4   -0.1229    0.0909    0.1433    0.0021    0.1426   -0.1246    0.3752   -0.1999
  Pz  C    4   -0.0137    0.0076    0.0144   -0.0052    0.0003   -0.0045    0.0139   -0.0033
  S   C    5   -0.0825    0.0751    0.0686    0.0140   -0.1079   -0.0333   -0.0436   -0.0189
  Px  C    5   -0.1127    0.0207    0.1516   -0.1881   -0.1382    0.0854   -0.1328    0.2104
  Py  C    5    0.2552   -0.2643   -0.1132   -0.1509    0.1927    0.1162    0.0416    0.1547
  Pz  C    5   -0.0125    0.0083    0.0108   -0.0056   -0.0127    0.0014   -0.0084    0.0072
  S   C    6    0.0429   -0.0659    0.0328   -0.0761   -0.0364   -0.0102   -0.0139    0.0044
  Px  C    6    0.1015   -0.1642    0.1045   -0.1694   -0.0948   -0.0286   -0.0288   -0.0020
  Py  C    6    0.1321   -0.1438   -0.1431   -0.1085    0.2814    0.2145    0.0401    0.2806
  Pz  C    6    0.0042   -0.0044   -0.0048   -0.0033    0.0086    0.0047    0.0024    0.0055
  S   C    7    0.0332   -0.0225    0.0798    0.0773    0.0345    0.0298    0.0643   -0.0130
  Px  C    7   -0.0879    0.1304   -0.1407    0.0444    0.0485    0.1337   -0.1934    0.1428
  Py  C    7    0.0887   -0.0057    0.1397    0.2323    0.1035    0.1585    0.0496    0.0206
  Pz  C    7   -0.0021    0.0089   -0.0048    0.0130    0.0088    0.0166   -0.0130    0.0109
  S   C    8    0.0906   -0.0196   -0.0757    0.0784   -0.0503   -0.0400   -0.0565   -0.0073
  Px  C    8    0.1420    0.0589   -0.0109    0.1676   -0.1544   -0.2131    0.0549   -0.0712
  Py  C    8   -0.2784    0.1097    0.2070   -0.1241    0.0459   -0.0114    0.1802   -0.0578
  Pz  C    8    0.0043    0.0054    0.0046    0.0054   -0.0065   -0.0093    0.0063   -0.0029
  S   C    9    0.0050   -0.0310   -0.0316    0.0090    0.0035    0.0074   -0.0226   -0.0113
  Px  C    9    0.2148    0.0361   -0.0779    0.2158   -0.2112   -0.2348   -0.0026   -0.0724
  Py  C    9    0.1310   -0.0220    0.1193    0.1429   -0.1185    0.4388    0.1217   -0.0654
  Pz  C    9   -0.0012    0.0002   -0.0058   -0.0009    0.0001   -0.0191   -0.0043    0.0006
  S   C   10    0.0040   -0.0325    0.0358   -0.0029    0.0025    0.0060    0.0300   -0.0052
  Px  C   10    0.0421    0.0092   -0.0329    0.2535    0.1721   -0.2505   -0.0999    0.0830
  Py  C   10    0.0195    0.0476    0.1427    0.1489    0.0869    0.4225    0.0631    0.0400
  Pz  C   10    0.0015    0.0048   -0.0010    0.0137    0.0078   -0.0005   -0.0030    0.0051
  S   C   11   -0.0278   -0.0482    0.0689   -0.0766   -0.0367    0.0466    0.0826    0.0169
  Px  C   11    0.0351   -0.0251    0.0157    0.2019    0.1224   -0.2189   -0.0222    0.0976
  Py  C   11   -0.1079   -0.1829    0.1814   -0.1096   -0.0294   -0.0015    0.1801    0.1134
  Pz  C   11    0.0049    0.0111   -0.0132    0.0038    0.0005    0.0018   -0.0136   -0.0076
  S   H   12   -0.0626   -0.0806    0.0816   -0.0994   -0.0505    0.0627    0.0964    0.0326
  S   C   13   -0.0983   -0.0416   -0.0747   -0.0690    0.0517   -0.0406   -0.0793   -0.0311
  Px  C   13   -0.1448   -0.1569   -0.1579    0.0371   -0.0502    0.1404   -0.1198   -0.2049
  Py  C   13    0.2839    0.0694    0.1217    0.2166   -0.1471    0.1833    0.1121   -0.0202
  Pz  C   13    0.0033    0.0035    0.0022   -0.0019    0.0013   -0.0022    0.0006    0.0024
  S   H   14    0.0658   -0.0376    0.1085    0.0935    0.0428    0.0493    0.0838   -0.0293
  S   H   15    0.1162   -0.1149   -0.0735   -0.0867    0.0641    0.0125    0.0157    0.0088
  S   H   16   -0.1567    0.1667   -0.0805    0.0707    0.1389    0.0319    0.0713    0.0146
  S   H   17   -0.1568    0.1331    0.0959    0.0177   -0.1325   -0.0298   -0.0624   -0.0119
  S   H   18    0.0566   -0.0965    0.0646   -0.1014   -0.0581   -0.0152   -0.0200    0.0006
  S   H   19    0.1837   -0.0423   -0.1142    0.0961   -0.0680   -0.0577   -0.0895    0.0163
  S   H   20   -0.1806   -0.0754   -0.1010   -0.0886    0.0584   -0.0582   -0.0894   -0.0447
  S   C   21    0.0466    0.0901   -0.0757   -0.0453   -0.0686    0.0351    0.0531   -0.0145
  Px  C   21   -0.0326   -0.0747    0.1976   -0.1456    0.1368    0.0614   -0.1002   -0.2019
  Py  C   21    0.1825    0.3148   -0.1236   -0.2217   -0.1037    0.1116    0.0886   -0.1375
  Pz  C   21    0.0004    0.0015   -0.0059    0.0045   -0.0044   -0.0025    0.0035    0.0081
  S   C   22   -0.0521   -0.0691   -0.0483    0.0767   -0.0428    0.0155    0.0170   -0.0021
  Px  C   22    0.1684    0.2071    0.1308   -0.1857    0.0936   -0.0327   -0.0314    0.0105
  Py  C   22    0.0635    0.1564   -0.1555   -0.1711   -0.1631    0.1991    0.1129   -0.2533
  Pz  C   22   -0.0161   -0.0169   -0.0207    0.0148   -0.0162    0.0100    0.0076   -0.0091
  S   C   23   -0.0197   -0.0660    0.0660    0.0738    0.0342   -0.0198   -0.0265    0.0082
  Px  C   23    0.1035    0.2010    0.0307   -0.2075    0.1243   -0.1437   -0.0567    0.1931
  Py  C   23   -0.0069    0.0805   -0.2071   -0.0680   -0.1528    0.1278    0.0907   -0.1360
  Pz  C   23   -0.0078   -0.0134   -0.0059    0.0128   -0.0116    0.0137    0.0050   -0.0184
  S   C   24    0.0654    0.0851    0.0673   -0.0461    0.0775   -0.0397   -0.0556    0.0205
  Px  C   24    0.0973    0.2103   -0.0470   -0.2340    0.0447   -0.1009    0.0096    0.1822
  Py  C   24   -0.2137   -0.2094   -0.2204   -0.0042   -0.1708    0.0180    0.1556    0.0818
  Pz  C   24   -0.0158   -0.0191   -0.0147    0.0080   -0.0148    0.0058    0.0113   -0.0006
  S   H   25    0.0992    0.1762   -0.1197   -0.0635   -0.0926    0.0361    0.0768   -0.0045
  S   H   26   -0.1057   -0.1340   -0.0712    0.1203   -0.0478    0.0089    0.0149    0.0065
  S   H   27   -0.0259   -0.1028    0.0980    0.0997    0.0407   -0.0200   -0.0312    0.0085
  S   H   28    0.1368    0.1664    0.0977   -0.0641    0.1004   -0.0378   -0.0792    0.0068
  S   C   29    0.0242    0.0477   -0.0164   -0.0515   -0.0296    0.0172    0.0305   -0.0005
  Px  C   29   -0.0569   -0.1347    0.2797   -0.1069    0.2079    0.0400   -0.1567   -0.2012
  Py  C   29   -0.0483   -0.1288    0.1123   -0.0010   -0.1046   -0.0940    0.3408    0.2951
  Pz  C   29    0.0050    0.0117   -0.0181    0.0053   -0.0090    0.0020   -0.0009    0.0007
  S   C   30    0.0161    0.0407    0.0067   -0.0524    0.0334   -0.0164   -0.0224    0.0098
  Px  C   30   -0.2042   -0.1702   -0.2414   -0.0264   -0.0121    0.0892   -0.1891   -0.2133
  Py  C   30   -0.1007   -0.0526   -0.1940   -0.0734   -0.2259   -0.0634    0.3330    0.3001
  Pz  C   30   -0.0071   -0.0040   -0.0110   -0.0051   -0.0068   -0.0020    0.0077    0.0074


   Root No.      81        82        83        84

                81 A      82 A      83 A      84 A   

                12.496    12.761    13.266    14.498
  
  S   C    1    0.0636   -0.0072    0.0085    0.0400
  Px  C    1    0.2166    0.2340    0.1893    0.0996
  Py  C    1    0.0186   -0.1533   -0.0929    0.0289
  Pz  C    1   -0.0112   -0.0115   -0.0090   -0.0047
  S   C    2    0.0093   -0.0231   -0.0113    0.0269
  Px  C    2    0.2653    0.2197    0.1890    0.1430
  Py  C    2    0.1662    0.0549    0.0560    0.1253
  Pz  C    2    0.0105   -0.0002    0.0015    0.0106
  S   C    3   -0.0185   -0.0049    0.0105    0.0233
  Px  C    3    0.2177    0.1068    0.2623    0.2256
  Py  C    3    0.1847    0.0981    0.0065    0.1078
  Pz  C    3    0.0284    0.0152    0.0201    0.0230
  S   C    4   -0.0045   -0.0000   -0.0098    0.0335
  Px  C    4    0.2140   -0.1911   -0.1008    0.2272
  Py  C    4    0.1532   -0.0700   -0.1905    0.1475
  Pz  C    4    0.0146   -0.0113   -0.0141    0.0156
  S   C    5    0.0178    0.0225    0.0174    0.0281
  Px  C    5    0.1996   -0.2025   -0.0990    0.1844
  Py  C    5    0.0769   -0.1749   -0.1100    0.0575
  Pz  C    5    0.0075   -0.0064   -0.0028    0.0073
  S   C    6    0.0607   -0.0064    0.0014    0.0385
  Px  C    6    0.1239   -0.0007    0.0110    0.0743
  Py  C    6    0.0637   -0.3012   -0.1895    0.0728
  Pz  C    6    0.0027   -0.0063   -0.0040    0.0023
  S   C    7   -0.0616    0.0026   -0.0094    0.0062
  Px  C    7    0.1711    0.1104    0.2707    0.2483
  Py  C    7   -0.0213    0.0936    0.1178    0.1441
  Pz  C    7    0.0114    0.0124    0.0251    0.0238
  S   C    8   -0.0619    0.0043    0.0000    0.0143
  Px  C    8    0.0899   -0.1773   -0.2124    0.2958
  Py  C    8    0.1872   -0.0761   -0.1269    0.1420
  Pz  C    8    0.0096   -0.0098   -0.0107    0.0163
  S   C    9   -0.0582    0.0292    0.0004   -0.0018
  Px  C    9    0.0151   -0.1518   -0.2049    0.2989
  Py  C    9    0.0008    0.2168   -0.1126    0.1422
  Pz  C    9    0.0011   -0.0104   -0.0001    0.0015
  S   C   10   -0.0610   -0.0096   -0.0027   -0.0081
  Px  C   10   -0.0819   -0.1126    0.2323    0.2671
  Py  C   10    0.0508    0.2245    0.1323    0.1283
  Pz  C   10    0.0044    0.0015    0.0120    0.0131
  S   C   11   -0.0591    0.0091    0.0117   -0.0128
  Px  C   11   -0.1468   -0.1191    0.2356    0.2450
  Py  C   11   -0.2019   -0.0181    0.1544    0.1093
  Pz  C   11    0.0146    0.0032   -0.0120   -0.0083
  S   H   12   -0.0456    0.0262    0.0121   -0.0118
  S   C   13   -0.0584    0.0060   -0.0142   -0.0120
  Px  C   13   -0.1580    0.1150   -0.2484    0.2567
  Py  C   13    0.0349    0.0792   -0.0963    0.1574
  Pz  C   13    0.0011   -0.0006    0.0018   -0.0038
  S   H   14   -0.0435    0.0208   -0.0136    0.0033
  S   H   15    0.0719   -0.0018    0.0110    0.0389
  S   H   16    0.0051   -0.0350   -0.0287    0.0168
  S   H   17    0.0138    0.0273    0.0265    0.0169
  S   H   18    0.0699    0.0003    0.0078    0.0388
  S   H   19   -0.0624   -0.0143    0.0102    0.0046
  S   H   20   -0.0485   -0.0140   -0.0182   -0.0063
  S   C   21    0.0074   -0.0350    0.0237   -0.0241
  Px  C   21   -0.2564   -0.1399    0.1130    0.1576
  Py  C   21   -0.1409   -0.1712    0.1405    0.0500
  Pz  C   21    0.0091    0.0066   -0.0053   -0.0060
  S   C   22    0.0701   -0.0188    0.0032   -0.0370
  Px  C   22   -0.1434    0.0455   -0.0120    0.0713
  Py  C   22   -0.1442   -0.3039    0.2264    0.0517
  Pz  C   22    0.0102   -0.0147    0.0087   -0.0052
  S   C   23    0.0676   -0.0098    0.0044   -0.0383
  Px  C   23   -0.1769    0.3092   -0.2036    0.1112
  Py  C   23   -0.0515   -0.1661    0.1158    0.0174
  Pz  C   23    0.0104   -0.0262    0.0169   -0.0066
  S   C   24    0.0028    0.0413   -0.0306   -0.0186
  Px  C   24   -0.2260    0.2947   -0.1884    0.1505
  Py  C   24   -0.1380    0.0718   -0.0212    0.1133
  Pz  C   24   -0.0014   -0.0045    0.0042    0.0033
  S   H   25    0.0014   -0.0410    0.0371   -0.0157
  S   H   26    0.0872   -0.0141   -0.0002   -0.0396
  S   H   27    0.0773   -0.0071   -0.0003   -0.0376
  S   H   28    0.0001    0.0470   -0.0435   -0.0082
  S   C   29    0.0047   -0.0018   -0.0077   -0.0328
  Px  C   29   -0.2652   -0.1179    0.1042    0.1929
  Py  C   29   -0.1701   -0.0133    0.2404    0.1126
  Pz  C   29    0.0199    0.0058   -0.0129   -0.0143
  S   C   30   -0.0102    0.0107    0.0049   -0.0269
  Px  C   30   -0.2021    0.1208   -0.2509    0.2354
  Py  C   30   -0.1429    0.1336    0.0379    0.0918
  Pz  C   30   -0.0094    0.0071   -0.0029    0.0058


              NET ATOMIC CHARGES AND DIPOLE CONTRIBUTIONS

  ATOM NO.   TYPE          CHARGE      No. of ELECS.   s-Pop       p-Pop       
    1          C          -0.023930        4.0239     1.09799     2.92594
    2          C          -0.025958        4.0260     1.09142     2.93454
    3          C           0.010657        3.9893     1.06676     2.92258
    4          C           0.009770        3.9902     1.07289     2.91735
    5          C          -0.035768        4.0358     1.10523     2.93054
    6          C          -0.021408        4.0214     1.09549     2.92592
    7          C          -0.036193        4.0362     1.10368     2.93251
    8          C          -0.036977        4.0370     1.08850     2.94848
    9          C           0.013633        3.9864     1.06261     2.92376
   10          C           0.004916        3.9951     1.07569     2.91940
   11          C          -0.030756        4.0308     1.09672     2.93403
   12          H           0.029462        0.9705     0.97054
   13          C          -0.034029        4.0340     1.09597     2.93806
   14          H           0.020691        0.9793     0.97931
   15          H           0.022521        0.9775     0.97748
   16          H           0.028541        0.9715     0.97146
   17          H           0.030392        0.9696     0.96961
   18          H           0.017372        0.9826     0.98263
   19          H           0.022229        0.9778     0.97777
   20          H           0.029184        0.9708     0.97082
   21          C          -0.038413        4.0384     1.10622     2.93219
   22          C          -0.019829        4.0198     1.08417     2.93566
   23          C          -0.019508        4.0195     1.08102     2.93849
   24          C          -0.031914        4.0319     1.09831     2.93360
   25          H           0.029964        0.9700     0.97004
   26          H           0.024931        0.9751     0.97507
   27          H           0.014165        0.9858     0.98584
   28          H           0.026668        0.9733     0.97333
   29          C           0.010873        3.9891     1.07023     2.91889
   30          C           0.008717        3.9913     1.06931     2.92197
 DIPOLE           X         Y         Z       TOTAL
 POINT-CHG.     0.096    -0.055    -0.035     0.116
 HYBRID        -0.016     0.087    -0.201     0.220
 SUM            0.080     0.032    -0.236     0.251


          ATOMIC ORBITAL ELECTRON POPULATIONS

     Atom    s        px        py        pz   
    1  C   1.09799   0.97096   0.95393   1.00105
    2  C   1.09142   0.97103   0.96404   0.99948
    3  C   1.06676   0.96760   0.96830   0.98668
    4  C   1.07289   0.96230   0.97502   0.98003
    5  C   1.10523   0.96736   0.95186   1.01132
    6  C   1.09549   0.94421   0.98918   0.99253
    7  C   1.10368   0.96436   0.95100   1.01715
    8  C   1.08850   0.97172   0.95484   1.02192
    9  C   1.06261   0.97422   0.97109   0.97845
   10  C   1.07569   0.96374   0.97091   0.98475
   11  C   1.09672   0.96479   0.95542   1.01382
   12  H   0.97054
   13  C   1.09597   0.97208   0.95075   1.01523
   14  H   0.97931
   15  H   0.97748
   16  H   0.97146
   17  H   0.96961
   18  H   0.98263
   19  H   0.97777
   20  H   0.97082
   21  C   1.10622   0.96495   0.95184   1.01540
   22  C   1.08417   0.95007   0.99320   0.99239
   23  C   1.08102   0.98083   0.95870   0.99896
   24  C   1.09831   0.97457   0.95781   1.00123
   25  H   0.97004
   26  H   0.97507
   27  H   0.98584
   28  H   0.97333
   29  C   1.07023   0.96086   0.97497   0.98305
   30  C   1.06931   0.97168   0.96791   0.98239

 **********************
 *                    *
 * JOB ENDED NORMALLY *
 *                    *
 **********************



 TOTAL JOB TIME:             0.92 SECONDS

 == MOPAC DONE ==


          MOPAC Job: "./tetraceneTraj/tetracene_1289.mop" ended normally on Feb 15, 2023, at 11:32.

rm: cannot remove ./tetraceneTraj/tetracene_1289.cim: No such file or directory
rm: cannot remove ./tetraceneTraj/tetracene_1289.end: No such file or directory
rm: cannot remove ./tetraceneTraj/tetracene_1289.log: No such file or directory
rm: cannot remove ./tetraceneTraj/tetracene_1289.temp: No such file or directory
rm: cannot remove ./tetraceneTraj/tetracene_1289.ple: No such file or directory
rm: cannot remove ./tetraceneTraj/tetracene_1289.sts: No such file or directory
