 *******************************************************************************
 ** Site#:    0         For non-commercial use only    Version 20.173L 64BITS **
 *******************************************************************************
 ** Cite this program as: MOPAC2016, Version: 20.173L, James J. P. Stewart,   **
 ** Stewart Computational Chemistry, web-site: HTTP://OpenMOPAC.net.          **
 *******************************************************************************
 **                                                                           **
 **                                MOPAC2016                                  **
 **                                                                           **
 *******************************************************************************

                              INDO CALCULATION RESULTS

 *******************************************************************************
 *  CALCULATION DONE:                                Wed Feb 15 11:31:33 2023  *
 *  INDO       - The INDO Hamiltonian to be used
 *
 *
 *
 *                 CHARGE ON SYSTEM = 0
 *
 *
 *
 *  C.I.=(N,M) - 3 DOUBLY FILLED LEVELS USED IN A C.I. INVOLVING 6 M.O.'S
 *  T=         - A TIME OF 172800.0 SECONDS REQUESTED
 *  DUMP=N     - RESTART FILE WRITTEN EVERY 7200.0 SECONDS REQUESTED
 *  RELSCF     - DEFAULT SCF CRITERION MULTIPLIED BY 0.0000
 *              (DEFAULT SCF CRITERION = 0.00010)
 *  ALLVEC     - PRINT ALL EIGENVECTORS
 **********
 *  WARNING: Specified print options may not behave as expected with INDO
 **********
 *******************************************************************************
INDO C.I.=(6,3) AllVEC CHARGE=0 RELSCF=0.000001


   ATOM   CHEMICAL          X               Y               Z
  NUMBER   SYMBOL      (ANGSTROMS)     (ANGSTROMS)     (ANGSTROMS)
 
     1       C         18.52179551  *  19.52117744  *  22.35105123  *
     2       C         19.92472330  *  19.45433216  *  22.29963153  *
     3       C         20.68444570  *  20.65432579  *  22.43509546  *
     4       C         19.97293628  *  21.94005623  *  22.43213008  *
     5       C         18.49266924  *  21.97079941  *  22.39355992  *
     6       C         17.78024611  *  20.78756862  *  22.37633377  *
     7       C         22.09895164  *  20.61937372  *  22.52030505  *
     8       C         20.75277894  *  23.15730169  *  22.56199008  *
     9       C         22.15286537  *  23.12048359  *  22.59135046  *
    10       C         22.88114168  *  21.83346889  *  22.62737812  *
    11       C         24.32366741  *  21.81189837  *  22.65734025  *
    12       H         24.84293402  *  20.89788737  *  22.51070316  *
    13       C         22.89138888  *  24.32718750  *  22.58139886  *
    14       H         22.57945885  *  19.66356105  *  22.59836566  *
    15       H         17.98375462  *  18.57446207  *  22.30318471  *
    16       H         20.51388748  *  18.53319501  *  22.28337131  *
    17       H         17.88459406  *  22.87263044  *  22.37542341  *
    18       H         16.68171891  *  20.75553998  *  22.29994913  *
    19       H         20.20998066  *  24.07736899  *  22.55819727  *
    20       H         22.35847787  *  25.30870506  *  22.60362585  *
    21       C         26.51188846  *  23.06262077  *  22.50368049  *
    22       C         27.16220719  *  24.25312815  *  22.42199641  *
    23       C         26.44063665  *  25.55254978  *  22.51905791  *
    24       C         25.06794779  *  25.59065481  *  22.62973514  *
    25       H         27.06713561  *  22.08319030  *  22.47136589  *
    26       H         28.29949772  *  24.30415153  *  22.34864314  *
    27       H         26.96796700  *  26.49726954  *  22.45107553  *
    28       H         24.43933573  *  26.52129435  *  22.70139283  *
    29       C         25.04738299  *  23.00690455  *  22.54445429  *
    30       C         24.30671134  *  24.32867173  *  22.59505913  *
 


          CARTESIAN COORDINATES 

    NO.       ATOM           X           Y           Z

     1         C         18.5218     19.5212     22.3511
     2         C         19.9247     19.4543     22.2996
     3         C         20.6844     20.6543     22.4351
     4         C         19.9729     21.9401     22.4321
     5         C         18.4927     21.9708     22.3936
     6         C         17.7802     20.7876     22.3763
     7         C         22.0990     20.6194     22.5203
     8         C         20.7528     23.1573     22.5620
     9         C         22.1529     23.1205     22.5914
    10         C         22.8811     21.8335     22.6274
    11         C         24.3237     21.8119     22.6573
    12         H         24.8429     20.8979     22.5107
    13         C         22.8914     24.3272     22.5814
    14         H         22.5795     19.6636     22.5984
    15         H         17.9838     18.5745     22.3032
    16         H         20.5139     18.5332     22.2834
    17         H         17.8846     22.8726     22.3754
    18         H         16.6817     20.7555     22.2999
    19         H         20.2100     24.0774     22.5582
    20         H         22.3585     25.3087     22.6036
    21         C         26.5119     23.0626     22.5037
    22         C         27.1622     24.2531     22.4220
    23         C         26.4406     25.5525     22.5191
    24         C         25.0679     25.5907     22.6297
    25         H         27.0671     22.0832     22.4714
    26         H         28.2995     24.3042     22.3486
    27         H         26.9680     26.4973     22.4511
    28         H         24.4393     26.5213     22.7014
    29         C         25.0474     23.0069     22.5445
    30         C         24.3067     24.3287     22.5951

           Empirical Formula: C18 H12  =    30 atoms



      MOLECULAR POINT GROUP   :   C2  


      RHF CALCULATION, NO. OF DOUBLY OCCUPIED LEVELS = 42

 WARNING: INDO only performs single-point calculations
  SCF CRITERION =    0.1000E-09

 Summary of symmetry occupancy in each shell:

 SHELL     
    1   42
    v   42
 TOTAL  84




    ROOT NO.    1           2           3           4           5           6

           -44.35198   -42.62150   -40.15821   -36.67858   -35.85805   -34.18842
  
  
  S  C   1   0.13277    -0.22182    -0.25450     0.24121     0.03590     0.11089
 PX  C   1   0.03647    -0.05246    -0.04215    -0.00030     0.04864     0.09170
 PY  C   1   0.04617    -0.07367    -0.07729     0.06399    -0.02880    -0.05037
 PZ  C   1   0.00025     0.00006     0.00092    -0.00211    -0.00067    -0.00226
  
  S  C   2   0.17215    -0.24545    -0.21003     0.08164     0.17309     0.29622
 PX  C   2  -0.00076     0.02535     0.06685    -0.11355     0.05467     0.04465
 PY  C   2   0.06769    -0.08816    -0.05947    -0.00111     0.01850     0.01928
 PZ  C   2   0.00822    -0.01082    -0.00745    -0.00038     0.00793     0.01134
  
  S  C   3   0.29249    -0.29118    -0.06925    -0.19060     0.18044     0.20157
 PX  C   3   0.00168     0.06071     0.13233    -0.13724     0.07684     0.03751
 PY  C   3   0.05036    -0.01313     0.06435    -0.08672    -0.09536    -0.15015
 PZ  C   3   0.00146     0.00334     0.01010    -0.01052    -0.00050    -0.00592
  
  S  C   4   0.27977    -0.27411    -0.05918    -0.15250    -0.16057    -0.20927
 PX  C   4   0.05053     0.01308     0.12292    -0.16568     0.03442     0.06187
 PY  C   4  -0.03235     0.06809     0.08455    -0.04984    -0.10912    -0.11797
 PZ  C   4   0.00529    -0.00117     0.00786    -0.01202    -0.00537    -0.00632
  
  S  C   5   0.15707    -0.22855    -0.20824     0.14695    -0.17846    -0.27871
 PX  C   5   0.04701    -0.04836    -0.00609    -0.05697    -0.02548    -0.02161
 PY  C   5  -0.04160     0.07499     0.09301    -0.09278    -0.01060    -0.01211
 PZ  C   5   0.00122    -0.00059     0.00160    -0.00396    -0.00202    -0.00261
  
  S  C   6   0.12790    -0.21589    -0.25331     0.26582    -0.08944    -0.13652
 PX  C   6   0.05761    -0.08995    -0.08964     0.06042    -0.01228    -0.00939
 PY  C   6   0.00433    -0.00360     0.00299    -0.01179    -0.04566    -0.09172
 PZ  C   6  -0.00028     0.00092     0.00194    -0.00331    -0.00033    -0.00090
  
  S  C   7   0.24901    -0.12336     0.13747    -0.23977     0.30336     0.15974
 PX  C   7  -0.03841     0.07485     0.03648     0.08837     0.01275    -0.07575
 PY  C   7   0.07679    -0.00662     0.08344    -0.05474    -0.00562    -0.06160
 PZ  C   7   0.00117     0.00270     0.00558     0.00005     0.00296    -0.00480
  
  S  C   8   0.25150    -0.10813     0.16722    -0.21579    -0.30918    -0.20520
 PX  C   8   0.05536     0.02918     0.09494    -0.01041    -0.02505     0.06473
 PY  C   8  -0.06838     0.06220    -0.01381     0.09737    -0.02396     0.04478
 PZ  C   8  -0.00440     0.00477     0.00031     0.00624     0.00421     0.00750
  
  S  C   9   0.34142     0.03637     0.30349    -0.00231    -0.23029    -0.01208
 PX  C   9   0.01937     0.08967     0.01148     0.18851     0.08144     0.08206
 PY  C   9  -0.04552     0.04380    -0.03443     0.10222    -0.13480     0.04871
 PZ  C   9  -0.00246     0.00219    -0.00120     0.00520     0.00247     0.00220
  
  S  C  10   0.32860     0.03754     0.28025     0.00879     0.21934    -0.01981
 PX  C  10  -0.03264     0.08490    -0.03084     0.19380     0.07896    -0.03837
 PY  C  10   0.04892     0.05362     0.04263     0.10388    -0.12535    -0.01811
 PZ  C  10  -0.00902     0.00193    -0.00671     0.00661    -0.00600    -0.00016
  
  S  C  11   0.22995     0.16422     0.12360     0.24225     0.32086    -0.17197
 PX  C  11  -0.04874     0.01554    -0.08907    -0.00780    -0.00810    -0.06969
 PY  C  11   0.06477     0.07465     0.00721     0.09909    -0.00599    -0.02429
 PZ  C  11  -0.01022    -0.00752    -0.00472    -0.01046    -0.01662     0.01077
  
  S  H  12   0.07431     0.05264     0.03522     0.07266     0.16449    -0.09432
  
  S  C  13   0.23939     0.16076     0.14545     0.21640    -0.29889     0.21214
 PX  C  13   0.02315     0.07114    -0.04909     0.07944     0.03240     0.08860
 PY  C  13  -0.08104    -0.02612    -0.08716    -0.06061     0.00376     0.04189
 PZ  C  13   0.00100     0.00121     0.00108     0.00303    -0.00185     0.00267
  
  S  H  14   0.07952    -0.04055     0.03734    -0.07076     0.15917     0.09164
  
  S  H  15   0.03470    -0.06151    -0.07807     0.08816     0.01766     0.05287
  
  S  H  16   0.05502    -0.07429    -0.05682     0.00714     0.09517     0.15065
  
  S  H  17   0.04587    -0.06570    -0.05942     0.04736    -0.08559    -0.13594
  
  S  H  18   0.03243    -0.05831    -0.07622     0.09689    -0.03586    -0.05956
  
  S  H  19   0.08018    -0.03351     0.05090    -0.05845    -0.16068    -0.09940
  
  S  H  20   0.07310     0.04785     0.04152     0.05449    -0.15303     0.09940
  
  S  C  21   0.13524     0.23904    -0.23660    -0.11228     0.16253    -0.28771
 PX  C  21  -0.04452    -0.05958     0.01896    -0.05431    -0.04089     0.02300
 PY  C  21   0.02940     0.06717    -0.09695    -0.09675    -0.03108     0.00957
 PZ  C  21   0.00058     0.00006     0.00228     0.00507    -0.00006     0.00305
  
  S  C  22   0.10500     0.21479    -0.27568    -0.24586     0.04105    -0.14627
 PX  C  22  -0.04679    -0.08876     0.09741     0.05793    -0.00327     0.01196
 PY  C  22  -0.00619    -0.00822     0.00029    -0.02119    -0.05292     0.09535
 PZ  C  22   0.00466     0.00928    -0.01113    -0.00833     0.00049    -0.00259
  
  S  C  23   0.10375     0.21250    -0.27353    -0.25226    -0.08297     0.10057
 PX  C  23  -0.02823    -0.05061     0.04830     0.01592     0.04546    -0.08619
 PY  C  23  -0.03674    -0.07155     0.08291     0.05763    -0.01561     0.04745
 PZ  C  23   0.00070     0.00107    -0.00053     0.00108    -0.00245     0.00552
  
  S  C  24   0.13265     0.23321    -0.22889    -0.12538    -0.17888     0.27651
 PX  C  24   0.00295     0.02830    -0.07505    -0.10733     0.02947    -0.04645
 PY  C  24  -0.05233    -0.08403     0.06463     0.00468     0.01825    -0.02251
 PZ  C  24  -0.00392    -0.00780     0.00949     0.00777     0.00281    -0.00356
  
  S  H  25   0.04036     0.06860    -0.06339    -0.02253     0.08311    -0.13634
  
  S  H  26   0.02520     0.05497    -0.07870    -0.08498     0.01610    -0.05980
  
  S  H  27   0.02710     0.05887    -0.08383    -0.09274    -0.03554     0.04822
  
  S  H  28   0.04092     0.06750    -0.05874    -0.02538    -0.08917     0.13760
  
  S  C  29   0.24767     0.30521    -0.09195     0.17587     0.19258    -0.18608
 PX  C  29  -0.04938    -0.00086    -0.12225    -0.15348     0.02277    -0.09484
 PY  C  29   0.01737     0.05378    -0.08444    -0.07065    -0.11538     0.10643
 PZ  C  29   0.00494     0.00450     0.00324     0.01037     0.00266     0.00033
  
  S  C  30   0.24727     0.30278    -0.08800     0.15709    -0.15817     0.23456
 PX  C  30  -0.01208     0.04566    -0.13844    -0.13262     0.07227    -0.06973
 PY  C  30  -0.05166    -0.02929    -0.06016    -0.10429    -0.09500     0.12004
 PZ  C  30  -0.00191    -0.00280     0.00231     0.00117    -0.00087     0.00199




    ROOT NO.    7           8           9          10          11          12

           -31.90619   -31.02625   -28.92226   -27.97127   -27.00983   -26.05350
  
  
  S  C   1   0.13703     0.29693    -0.19050     0.26947    -0.06183    -0.17880
 PX  C   1   0.11393    -0.06943    -0.10861    -0.15086     0.01592    -0.06960
 PY  C   1  -0.07181     0.00290     0.09163    -0.03064    -0.05318     0.09300
 PZ  C   1  -0.00380    -0.00551     0.00633    -0.00569    -0.00062     0.00655
  
  S  C   2   0.28219     0.01043    -0.16884    -0.10788     0.11505    -0.02152
 PX  C   2  -0.01496    -0.13798     0.13819    -0.11718     0.11004     0.19014
 PY  C   2  -0.00109    -0.08206     0.04704    -0.09874    -0.08067     0.07131
 PZ  C   2   0.00771    -0.00591     0.00109    -0.00880     0.00241     0.00614
  
  S  C   3   0.09221    -0.21747     0.09212    -0.11605    -0.07404     0.16270
 PX  C   3  -0.07221     0.04076     0.15420     0.14708     0.09509     0.09180
 PY  C   3  -0.09905    -0.03304    -0.02203     0.09382    -0.21523    -0.09780
 PZ  C   3  -0.01087     0.00434     0.00849     0.01717    -0.00244    -0.00346
  
  S  C   4  -0.05520    -0.28711    -0.12972    -0.10085    -0.13443    -0.19012
 PX  C   4   0.08360     0.02534    -0.04346     0.16651    -0.10729     0.06312
 PY  C   4  -0.01136     0.01592    -0.09527     0.09226     0.15754    -0.09837
 PZ  C   4   0.00052    -0.00168    -0.00725     0.01258    -0.00158    -0.00547
  
  S  C   5  -0.26239    -0.09858     0.16989    -0.16766     0.13171     0.02843
 PX  C   5   0.04991    -0.14232    -0.15230    -0.10121    -0.07655    -0.20419
 PY  C   5   0.02474    -0.07456    -0.06428    -0.02443     0.08739    -0.08343
 PZ  C   5   0.00056    -0.00604    -0.00519    -0.00232    -0.00053    -0.00755
  
  S  C   6  -0.19130     0.23678     0.21285     0.19947     0.01763     0.19591
 PX  C   6   0.00415    -0.02520    -0.03856    -0.08460    -0.05489    -0.07407
 PY  C   6  -0.11261    -0.10583     0.13276    -0.16114     0.08980     0.10644
 PZ  C   6  -0.00013    -0.00712    -0.00088    -0.00825    -0.00001    -0.00258
  
  S  C   7  -0.17288     0.02588     0.25732     0.11651     0.17471     0.00048
 PX  C   7  -0.12276     0.12889    -0.04881     0.02124     0.07690    -0.21326
 PY  C   7  -0.07933     0.07570    -0.02422     0.08974    -0.18400    -0.09052
 PZ  C   7  -0.01322     0.01219     0.00136     0.00849     0.00373    -0.01926
  
  S  C   8   0.14536    -0.00802    -0.22691     0.13913     0.18513    -0.02281
 PX  C   8   0.09424     0.17585     0.05525     0.06200    -0.03836     0.19813
 PY  C   8   0.06652     0.08119     0.02310    -0.04707     0.20464     0.07337
 PZ  C   8   0.00262     0.01145     0.00689     0.00024     0.00160     0.01124
  
  S  C   9   0.17178     0.25620    -0.00143    -0.01920    -0.05764     0.18718
 PX  C   9  -0.06390     0.01241     0.09972    -0.18635    -0.13502    -0.04169
 PY  C   9   0.14360    -0.01635     0.04075    -0.10292     0.23475     0.06235
 PZ  C   9  -0.00198     0.00287     0.00220    -0.00429    -0.00244    -0.00049
  
  S  C  10  -0.24568     0.23249     0.00887    -0.00583    -0.11639    -0.16956
 PX  C  10  -0.05025    -0.03317    -0.12337    -0.16605     0.11653    -0.08863
 PY  C  10   0.12342     0.02529    -0.06212    -0.10558    -0.19584     0.14776
 PZ  C  10   0.00458    -0.00175    -0.00412    -0.00714     0.00266    -0.00062
  
  S  C  11  -0.14691    -0.02244    -0.25391    -0.09656     0.18052    -0.05137
 PX  C  11   0.12958    -0.14017    -0.05238     0.09230     0.09580     0.17334
 PY  C  11   0.07043    -0.07312    -0.03012    -0.03704    -0.15570     0.15223
 PZ  C  11   0.00412     0.00398     0.01257     0.00068    -0.01390    -0.00125
  
  S  H  12  -0.07052    -0.01449    -0.12444    -0.00285     0.21168    -0.05730
  
  S  C  13   0.15780     0.00855     0.21774    -0.13142     0.15256    -0.07158
 PX  C  13  -0.10243    -0.15672     0.06476     0.02059    -0.14769    -0.16468
 PY  C  13  -0.05893    -0.09847     0.03147     0.10456     0.12777    -0.15374
 PZ  C  13   0.00007    -0.00003     0.00204    -0.00171     0.00154    -0.00240
  
  S  H  14  -0.07546     0.00821     0.12456     0.01759     0.21884    -0.01076
  
  S  H  15   0.07056     0.16399    -0.11027     0.19438    -0.00868    -0.11975
  
  S  H  16   0.13165     0.00306    -0.05867    -0.04153     0.14325     0.01511
  
  S  H  17  -0.13190    -0.03995     0.10134    -0.06406     0.13988     0.04154
  
  S  H  18  -0.09395     0.13149     0.12574     0.15138     0.03940     0.14259
  
  S  H  19   0.07583    -0.01583    -0.11401     0.02698     0.22210    -0.03612
  
  S  H  20   0.07234    -0.00390     0.09857    -0.01426     0.19560    -0.07318
  
  S  C  21   0.29247    -0.00979     0.18649     0.12411     0.08497    -0.06515
 PX  C  21   0.01228     0.13816     0.11556    -0.13981     0.00938    -0.21174
 PY  C  21   0.01233     0.08440     0.08267    -0.05693    -0.10609    -0.07436
 PZ  C  21  -0.00561    -0.00830    -0.01151     0.00592    -0.00108     0.01530
  
  S  C  22   0.14393     0.26802     0.17865    -0.25357    -0.04213    -0.20287
 PX  C  22  -0.00078     0.02214     0.01751    -0.08911     0.03299    -0.08500
 PY  C  22  -0.14237     0.06327    -0.15340    -0.12923    -0.03028     0.12195
 PZ  C  22   0.00137     0.00344     0.00046     0.00163    -0.00316     0.00378
  
  S  C  23  -0.20955     0.23645    -0.23584    -0.23286     0.02032     0.17987
 PX  C  23   0.10006     0.08635     0.08276    -0.16885    -0.03184    -0.06247
 PY  C  23  -0.06739    -0.02512    -0.10076    -0.00195     0.07643     0.07717
 PZ  C  23  -0.00665    -0.00814    -0.00656     0.01517     0.00371     0.00536
  
  S  C  24  -0.28379    -0.07089    -0.15619     0.15912     0.10763    -0.01054
 PX  C  24  -0.04918     0.13717    -0.15086    -0.10894    -0.03107     0.20716
 PY  C  24  -0.01868     0.07250    -0.07834    -0.08465     0.08829     0.05170
 PZ  C  24   0.00628    -0.00478     0.00652     0.00328     0.00266    -0.00810
  
  S  H  25   0.13510    -0.00786     0.07817     0.04962     0.10590    -0.05811
  
  S  H  26   0.06421     0.14042     0.09206    -0.17727    -0.00222    -0.14741
  
  S  H  27  -0.10841     0.12874    -0.14544    -0.16723     0.04042     0.11474
  
  S  H  28  -0.12657    -0.04311    -0.06029     0.07205     0.11451    -0.05361
  
  S  C  29   0.10996    -0.23673    -0.10213     0.12464    -0.05956     0.22594
 PX  C  29   0.10865     0.00245     0.06785     0.15988     0.10849     0.02446
 PY  C  29   0.00570    -0.02104     0.13690     0.06940    -0.17435    -0.03538
 PZ  C  29  -0.00334    -0.00710    -0.00995    -0.00369    -0.00527     0.00857
  
  S  C  30  -0.05203    -0.25266     0.13253     0.12165    -0.12325    -0.12981
 PX  C  30  -0.05127    -0.02657    -0.11360     0.15563    -0.05626     0.11934
 PY  C  30  -0.09654    -0.00609     0.02067     0.10756     0.15483    -0.15973
 PZ  C  30  -0.00241    -0.00068    -0.00157     0.00113     0.00424    -0.00358




    ROOT NO.   13          14          15          16          17          18

           -25.16355   -23.81483   -22.75734   -21.55316   -20.64304   -19.14232
  
  
  S  C   1   0.02516    -0.11289    -0.00556     0.16579    -0.01329    -0.00454
 PX  C   1   0.04860     0.24384     0.00113    -0.01156     0.19420     0.17609
 PY  C   1  -0.16333    -0.00452     0.20426    -0.11433    -0.15303     0.19415
 PZ  C   1  -0.00681    -0.00110     0.00922    -0.00518    -0.01117     0.00712
  
  S  C   2   0.17144     0.18230    -0.11632    -0.12276     0.09705     0.03588
 PX  C   2   0.04233    -0.05161    -0.05743    -0.17147    -0.14093    -0.13603
 PY  C   2  -0.19005    -0.00617     0.19955    -0.07007    -0.12853     0.06365
 PZ  C   2  -0.00361     0.00126     0.00873    -0.00420    -0.01036     0.00842
  
  S  C   3  -0.15376    -0.10671     0.00977    -0.09876    -0.03242    -0.14532
 PX  C   3   0.11813    -0.15203    -0.14311     0.10582    -0.00073    -0.01635
 PY  C   3  -0.16783    -0.08234     0.00342     0.11115     0.14373    -0.08850
 PZ  C   3   0.00250    -0.01304    -0.00535     0.02237     0.00519     0.00945
  
  S  C   4  -0.06636    -0.09916    -0.00218     0.09954    -0.04892    -0.16498
 PX  C   4  -0.08474    -0.15178    -0.09418    -0.17449     0.10599    -0.05780
 PY  C   4   0.25311    -0.07749    -0.14328     0.00222    -0.09358     0.03279
 PZ  C   4   0.00634    -0.01245    -0.01073    -0.00451    -0.00030     0.00704
  
  S  C   5   0.15537     0.18247    -0.10155     0.12218     0.12186     0.00752
 PX  C   5  -0.05316    -0.02379     0.13748     0.17228    -0.18912    -0.03598
 PY  C   5   0.17780    -0.01783    -0.17040     0.08976     0.02040    -0.18732
 PZ  C   5   0.00202    -0.00284     0.00108     0.00558    -0.00708     0.00150
  
  S  C   6  -0.05862    -0.14111     0.00744    -0.16883    -0.07761     0.01654
 PX  C   6  -0.07974     0.12940     0.16777     0.12556     0.00458     0.24380
 PY  C   6   0.08094     0.20173    -0.09590    -0.05309     0.22666     0.06315
 PZ  C   6  -0.00021     0.00742     0.00378     0.00543     0.00156     0.00975
  
  S  C   7   0.09539    -0.10195     0.08515     0.22838    -0.05412     0.13065
 PX  C   7   0.05205     0.14405     0.17524     0.08483     0.00427     0.14565
 PY  C   7  -0.09091     0.09954    -0.04991    -0.00002     0.21026    -0.00097
 PZ  C   7   0.00472     0.01194     0.01608     0.01745     0.00207     0.02389
  
  S  C   8   0.13558    -0.10230     0.04911    -0.18175    -0.09023     0.15836
 PX  C   8  -0.13116     0.16023     0.06848    -0.07404     0.19246     0.08929
 PY  C   8   0.04500     0.05513     0.18341    -0.03030    -0.11201     0.12054
 PZ  C   8  -0.00507     0.01371     0.00873    -0.00426     0.00420     0.01800
  
  S  C   9  -0.02940     0.21787    -0.01208    -0.01233     0.00604    -0.00015
 PX  C   9   0.02193     0.03792    -0.10249     0.16772    -0.15507    -0.17708
 PY  C   9  -0.03342    -0.08677     0.20897     0.09657    -0.06630    -0.11251
 PZ  C   9   0.00108     0.00882    -0.00176    -0.00053    -0.00664     0.00481
  
  S  C  10   0.04146     0.22701    -0.00995    -0.01092    -0.02047     0.00147
 PX  C  10   0.02260    -0.05538     0.10624    -0.16637    -0.16871    -0.15950
 PY  C  10   0.00441     0.07088    -0.20565    -0.09686    -0.09905    -0.07349
 PZ  C  10   0.00368     0.00335     0.00395    -0.00887    -0.01433    -0.00255
  
  S  C  11  -0.12316    -0.09363     0.04659    -0.21269     0.07208    -0.12903
 PX  C  11  -0.12855    -0.13566    -0.07059     0.06313     0.20236     0.08998
 PY  C  11   0.07362    -0.06988    -0.15812     0.05832    -0.11611     0.14699
 PZ  C  11   0.01324     0.00908     0.00012     0.00298    -0.01642     0.00404
  
  S  H  12  -0.14812    -0.05303     0.09010    -0.11707     0.17319    -0.12839
  
  S  C  13  -0.14154    -0.10656     0.05408     0.19935     0.09322    -0.16287
 PX  C  13   0.06126    -0.13591    -0.18313    -0.04921    -0.00792     0.15841
 PY  C  13  -0.10165    -0.08584     0.01988    -0.03457     0.20732     0.02248
 PZ  C  13  -0.00339     0.00185    -0.00309    -0.00179    -0.00158     0.00204
  
  S  H  14   0.11931    -0.06690     0.12280     0.13883    -0.15243     0.11666
  
  S  H  15   0.08612    -0.13414    -0.12136     0.16011     0.01852    -0.19645
  
  S  H  16   0.20750     0.07730    -0.18764    -0.07849     0.06749    -0.06619
  
  S  H  17   0.19315     0.09316    -0.19646     0.04581     0.14798    -0.09629
  
  S  H  18   0.01723    -0.16040    -0.10531    -0.17419    -0.04934    -0.17795
  
  S  H  19   0.13835    -0.07435     0.10528    -0.08064    -0.17528     0.12380
  
  S  H  20  -0.14779    -0.05987     0.09382     0.08900     0.16849    -0.11945
  
  S  C  21  -0.15360     0.18337    -0.11008     0.12837    -0.12735    -0.03697
 PX  C  21  -0.07254     0.01082    -0.14397    -0.15123    -0.19796    -0.02258
 PY  C  21   0.17161     0.00645     0.16384    -0.12888    -0.00806    -0.16067
 PZ  C  21   0.00477    -0.00434     0.00724     0.00662     0.01283     0.00368
  
  S  C  22   0.03273    -0.14189    -0.00620    -0.17512     0.05506     0.01841
 PX  C  22  -0.09163    -0.11753    -0.17501    -0.08764    -0.01967     0.25487
 PY  C  22   0.07835    -0.20142     0.09495     0.03593     0.25726     0.07570
 PZ  C  22   0.00729     0.00716     0.01298     0.00297     0.00024    -0.02295
  
  S  C  23  -0.02210    -0.12288    -0.00653     0.16918     0.05040    -0.01399
 PX  C  23   0.03052    -0.23764    -0.01551     0.02109     0.20257     0.19290
 PY  C  23  -0.15115     0.01263    -0.20087     0.16096    -0.15421     0.15799
 PZ  C  23  -0.00523     0.02365    -0.00253    -0.00248    -0.02529    -0.01818
  
  S  C  24  -0.14989     0.19566    -0.10633    -0.12338    -0.13051    -0.01545
 PX  C  24   0.05722     0.02765     0.07545     0.16935    -0.10099    -0.18388
 PY  C  24  -0.17259     0.01291    -0.19666     0.10087    -0.15599     0.05999
 PZ  C  24  -0.00685     0.00148    -0.01095    -0.00983    -0.00499     0.01338
  
  S  H  25  -0.19677     0.09144    -0.19490     0.08544    -0.12424     0.07030
  
  S  H  26  -0.03771    -0.15298    -0.11624    -0.14768     0.02334     0.20704
  
  S  H  27  -0.08349    -0.13322    -0.12453     0.19404     0.00363     0.16925
  
  S  H  28  -0.19039     0.09406    -0.18651    -0.06581    -0.11158     0.09639
  
  S  C  29   0.08876    -0.09481     0.01475     0.10600     0.05181     0.15706
 PX  C  29  -0.10119     0.15816     0.06824     0.15716     0.11512    -0.07372
 PY  C  29   0.24328     0.06817     0.15063     0.02818    -0.08030     0.01244
 PZ  C  29   0.00494    -0.01140    -0.00574    -0.01018    -0.00313     0.01178
  
  S  C  30   0.14847    -0.10439     0.01326    -0.08176     0.04266     0.15288
 PX  C  30   0.14286     0.14692     0.16831    -0.11702    -0.01300    -0.00277
 PY  C  30  -0.17444     0.09716    -0.01971    -0.14516     0.12982    -0.05462
 PZ  C  30  -0.00748     0.00286    -0.00755    -0.01016    -0.00151     0.00611




    ROOT NO.   19          20          21          22          23          24

           -18.42334   -17.41146   -16.98387   -16.63386   -15.85673   -15.37936
  
  
  S  C   1  -0.15945    -0.03866    -0.03563     0.11281     0.03979     0.04975
 PX  C   1   0.09387    -0.18600     0.03718    -0.05230     0.12608     0.14341
 PY  C   1   0.13199     0.17650    -0.02691     0.01405     0.15509     0.05765
 PZ  C   1   0.00014     0.01362    -0.00268     0.00632     0.01348     0.00170
  
  S  C   2   0.17640     0.03116     0.00594    -0.06692     0.00323     0.01057
 PX  C   2   0.08765     0.23026    -0.01954    -0.02490    -0.13451    -0.14815
 PY  C   2  -0.03136    -0.05765    -0.14659     0.27263    -0.11559     0.21830
 PZ  C   2  -0.00753     0.00026    -0.00944     0.02221     0.00920     0.02153
  
  S  C   3  -0.04852    -0.13475    -0.10893     0.15283    -0.07875     0.00427
 PX  C   3  -0.17244     0.02631    -0.03702     0.06733     0.24964    -0.08735
 PY  C   3  -0.04644    -0.19798     0.10970    -0.16556     0.00098    -0.08334
 PZ  C   3  -0.02231    -0.00463     0.00765    -0.00814     0.04497    -0.00242
  
  S  C   4   0.03518     0.06515     0.11442    -0.19136    -0.08256    -0.03035
 PX  C   4   0.13472    -0.23661     0.05191    -0.02238     0.08622     0.13805
 PY  C   4   0.08521     0.19449     0.01312    -0.00475     0.17774     0.09636
 PZ  C   4   0.00926     0.00429     0.00526    -0.00671     0.04169     0.00738
  
  S  C   5  -0.15820     0.00577    -0.00531     0.05585    -0.00326    -0.03824
 PX  C   5  -0.04257     0.28081     0.00909    -0.09783    -0.11468    -0.13332
 PY  C   5  -0.08993    -0.02844    -0.12538     0.19166    -0.22189     0.15255
 PZ  C   5  -0.00047     0.01260     0.00078    -0.00449     0.01789    -0.00718
  
  S  C   6   0.15672     0.06029     0.03310    -0.09569     0.06500    -0.02639
 PX  C   6  -0.17053     0.05638     0.00998     0.08906     0.27805    -0.06094
 PY  C   6   0.01480    -0.20295     0.08632    -0.09450     0.09120    -0.04488
 PZ  C   6  -0.00877     0.00473     0.00191     0.00229     0.02406    -0.00759
  
  S  C   7  -0.10770    -0.02729     0.02396    -0.03948     0.06546     0.00576
 PX  C   7   0.15732     0.01227     0.10913    -0.17390    -0.18872     0.07501
 PY  C   7   0.14639    -0.11284    -0.20232     0.07467    -0.00363    -0.15766
 PZ  C   7   0.00856     0.00190     0.00693    -0.02190    -0.00348     0.00602
  
  S  C   8   0.08905    -0.06031     0.00694     0.05003     0.07659     0.04219
 PX  C   8  -0.16445    -0.02364     0.16473    -0.05818    -0.14365    -0.03224
 PY  C   8  -0.04882    -0.12515    -0.21225     0.18694    -0.07112    -0.13213
 PZ  C   8  -0.01107     0.00249    -0.01094     0.00987     0.00378    -0.01474
  
  S  C   9  -0.14217     0.16153     0.12669     0.01982    -0.09624     0.06362
 PX  C   9   0.02664     0.12000    -0.09722     0.04393     0.05235     0.03997
 PY  C   9  -0.08582    -0.18343     0.12198    -0.08974    -0.11810    -0.01583
 PZ  C   9  -0.00324     0.01755    -0.02115     0.00370     0.00421    -0.01392
  
  S  C  10   0.16167     0.05425    -0.21251     0.04154    -0.05376    -0.07597
 PX  C  10   0.02884    -0.15080    -0.00462    -0.02204    -0.05741    -0.02085
 PY  C  10  -0.09687     0.22358    -0.00545     0.08957     0.09497     0.08212
 PZ  C  10  -0.00073     0.00662    -0.01070    -0.00491    -0.00137    -0.00913
  
  S  C  11  -0.08728    -0.02958     0.04034     0.02587     0.08065     0.00042
 PX  C  11  -0.16776     0.12708     0.12566     0.01672     0.11924     0.05757
 PY  C  11  -0.08507    -0.03062    -0.25762    -0.15232     0.12011    -0.15673
 PZ  C  11   0.00527    -0.00294    -0.02432    -0.00875    -0.00427    -0.02546
  
  S  H  12  -0.05145     0.05760     0.27233     0.13528     0.00425     0.14489
  
  S  C  13   0.09850    -0.01812    -0.01569    -0.05237     0.08895     0.00591
 PX  C  13   0.14411     0.03474     0.14523     0.16816     0.12167     0.18017
 PY  C  13   0.13872    -0.00651    -0.24847    -0.07173     0.11370    -0.13896
 PZ  C  13  -0.00527     0.01099    -0.01740    -0.00300     0.00164    -0.01319
  
  S  H  14  -0.09731     0.08004     0.21809    -0.15121    -0.03017     0.15245
  
  S  H  15  -0.20905    -0.06745    -0.01240     0.06687    -0.15087    -0.08411
  
  S  H  16   0.14302     0.16233     0.10886    -0.24791     0.02956    -0.22009
  
  S  H  17  -0.11941    -0.14543    -0.10026     0.21349    -0.11214     0.15660
  
  S  H  18   0.21483    -0.01024     0.00637    -0.12231    -0.21205     0.04021
  
  S  H  19   0.07689    -0.11558    -0.23064     0.18880     0.05404    -0.06638
  
  S  H  20   0.08715    -0.03316    -0.26776    -0.15160     0.08485    -0.17306
  
  S  C  21   0.15145    -0.00879     0.00844     0.06294    -0.00516     0.03554
 PX  C  21  -0.05689    -0.17586     0.18509     0.08969     0.14959    -0.14845
 PY  C  21  -0.09479    -0.08781    -0.10223    -0.20471     0.15558     0.27478
 PZ  C  21  -0.00291     0.01435    -0.01354    -0.00160    -0.00018    -0.01846
  
  S  C  22  -0.15224     0.02492    -0.06048    -0.09107     0.03989     0.05739
 PX  C  22  -0.14875    -0.04933     0.03234    -0.06147    -0.20816    -0.20217
 PY  C  22   0.00968     0.22988    -0.06415     0.09445    -0.10102    -0.07455
 PZ  C  22   0.00590     0.00464    -0.00514     0.00417     0.02997     0.00294
  
  S  C  23   0.14955     0.00843     0.04888     0.09813     0.05211    -0.03063
 PX  C  23   0.09683     0.13344    -0.09383     0.03864    -0.20021     0.14990
 PY  C  23   0.13968    -0.18994     0.07783    -0.01820    -0.12634     0.00863
 PZ  C  23  -0.01591    -0.01634     0.00366    -0.01303     0.02596    -0.01940
  
  S  C  24  -0.17596     0.01949    -0.02493    -0.05692    -0.00953    -0.02035
 PX  C  24   0.08395    -0.14691     0.13425     0.03407     0.22409    -0.15057
 PY  C  24  -0.03407    -0.09959    -0.14821    -0.25199     0.02383     0.26766
 PZ  C  24  -0.01954     0.00539    -0.02405    -0.02431    -0.01287     0.01263
  
  S  H  25   0.11676    -0.00908     0.16568     0.22737    -0.05332    -0.25525
  
  S  H  26  -0.19251    -0.01939    -0.00512    -0.09427    -0.16999    -0.15323
  
  S  H  27   0.21169    -0.07511     0.04026     0.05247    -0.15517     0.05925
  
  S  H  28  -0.14481     0.01050    -0.19360    -0.23081    -0.08515     0.25690
  
  S  C  29  -0.04159    -0.04273    -0.14513    -0.17371    -0.06732    -0.01242
 PX  C  29   0.15062     0.19545    -0.09913     0.03176    -0.12433     0.15842
 PY  C  29   0.11330    -0.15602     0.11264     0.00244    -0.19250     0.02222
 PZ  C  29  -0.02275    -0.00274    -0.01700    -0.01214     0.01377    -0.04122
  
  S  C  30   0.05605    -0.04604     0.18693     0.14512    -0.08736    -0.04447
 PX  C  30  -0.15367    -0.03324    -0.03995    -0.06027    -0.19675    -0.20293
 PY  C  30  -0.04767     0.23791    -0.02763     0.15020     0.00033    -0.05268
 PZ  C  30  -0.01665     0.01375    -0.01936    -0.00523    -0.00181    -0.02084




    ROOT NO.   25          26          27          28          29          30

           -15.12731   -14.92186   -14.71974   -14.39675   -13.57044   -13.35659
  
  
  S  C   1  -0.00641    -0.04954     0.03435    -0.00798    -0.06112     0.02160
 PX  C   1   0.26409     0.12362     0.01147     0.03098    -0.06408    -0.00600
 PY  C   1  -0.03537     0.04558     0.23291     0.07095    -0.15154     0.14991
 PZ  C   1   0.00261    -0.04782    -0.02257     0.12225    -0.07226    -0.20606
  
  S  C   2   0.02304     0.06735     0.07797     0.03401     0.00892     0.02517
 PX  C   2  -0.24409    -0.08199     0.01449    -0.00580     0.08824    -0.01399
 PY  C   2   0.12433    -0.06422     0.17426    -0.00849     0.06660    -0.05591
 PZ  C   2   0.03168    -0.06568    -0.02911     0.15976    -0.07275    -0.23900
  
  S  C   3  -0.02386    -0.00863    -0.06158     0.00047    -0.01281    -0.01710
 PX  C   3  -0.13707     0.05864    -0.06853    -0.00087    -0.17446     0.09487
 PY  C   3   0.05616     0.05228    -0.19254    -0.04601    -0.01143     0.04794
 PZ  C   3   0.04237    -0.08874    -0.08387     0.25570    -0.10075    -0.26644
  
  S  C   4   0.06020     0.00390    -0.02301    -0.01659    -0.01140     0.00841
 PX  C   4   0.13608    -0.06605    -0.01794    -0.06616    -0.20936     0.08411
 PY  C   4   0.00380    -0.02283     0.17699     0.01277    -0.19806     0.06466
 PZ  C   4   0.03792    -0.09194    -0.06867     0.25004    -0.10037    -0.25450
  
  S  C   5  -0.09217    -0.05342     0.01071    -0.00862     0.03409    -0.00275
 PX  C   5  -0.08032     0.09059     0.03533     0.05759     0.18423    -0.05454
 PY  C   5   0.07186    -0.00905     0.30110     0.08501     0.02629     0.05987
 PZ  C   5   0.00896    -0.04816    -0.04633     0.15274    -0.07103    -0.22081
  
  S  C   6   0.00524     0.04428    -0.02629     0.01057    -0.04611     0.00872
 PX  C   6  -0.22252    -0.12779    -0.04322    -0.06494    -0.17607     0.09790
 PY  C   6   0.05897    -0.01011    -0.28232    -0.09212     0.01853    -0.09512
 PZ  C   6  -0.00519    -0.04786    -0.04135     0.11436    -0.07541    -0.20400
  
  S  C   7   0.06945     0.06790     0.00408    -0.00208     0.03336     0.01684
 PX  C   7   0.15814     0.00582     0.10474    -0.02330     0.19381    -0.04256
 PY  C   7  -0.18474     0.27290     0.04974     0.13301     0.06073     0.05457
 PZ  C   7   0.06342    -0.09223    -0.05369     0.23310    -0.01888    -0.13756
  
  S  C   8  -0.00389    -0.05201    -0.03717    -0.02748     0.01368    -0.00681
 PX  C   8  -0.11277    -0.22144     0.10778    -0.05243     0.19673    -0.00564
 PY  C   8  -0.06481     0.18447    -0.21743     0.00551     0.21520    -0.07146
 PZ  C   8   0.02313    -0.09208    -0.07707     0.24290     0.00255    -0.13081
  
  S  C   9   0.00141    -0.01010     0.00555     0.00368     0.01256    -0.01330
 PX  C   9   0.11776     0.25470    -0.11656     0.04779    -0.18743     0.00385
 PY  C   9   0.03046     0.12060    -0.08590     0.02587    -0.12641     0.12772
 PZ  C   9   0.05241    -0.12697    -0.09249     0.30866     0.01828    -0.00126
  
  S  C  10  -0.00775    -0.00680    -0.00692     0.00118    -0.01021    -0.02269
 PX  C  10   0.01567    -0.25897    -0.11964    -0.15779    -0.20292     0.07161
 PY  C  10   0.05209    -0.12970    -0.04753    -0.07008    -0.07137    -0.08184
 PZ  C  10   0.06069    -0.15352    -0.08943     0.28061    -0.00682     0.00855
  
  S  C  11  -0.05026    -0.06499    -0.00709     0.01557     0.00870     0.02213
 PX  C  11  -0.00634     0.23312     0.11077     0.14130     0.21505    -0.05746
 PY  C  11   0.22803    -0.13119     0.03477    -0.12176     0.17557    -0.02287
 PZ  C  11   0.05439    -0.11983    -0.06758     0.21068     0.03074     0.15449
  
  S  H  12  -0.19336     0.17629     0.02125     0.13369    -0.04482    -0.01370
  
  S  C  13   0.02816     0.04670     0.05465     0.02907    -0.04438     0.01304
 PX  C  13  -0.05177     0.00796    -0.07980    -0.00939     0.23465    -0.04621
 PY  C  13  -0.04734    -0.25457     0.20613    -0.04156     0.07804    -0.09115
 PZ  C  13   0.04624    -0.09561    -0.07065     0.23526     0.04597     0.14005
  
  S  H  14   0.23351    -0.17963     0.00216    -0.09776     0.04638    -0.06230
  
  S  H  15  -0.09469    -0.11545    -0.17272    -0.08024     0.13042    -0.10455
  
  S  H  16  -0.18703     0.03792    -0.08456     0.01320    -0.00166     0.05458
  
  S  H  17   0.04792    -0.07056     0.21392     0.03177    -0.04487     0.07413
  
  S  H  18   0.20019     0.14194     0.03201     0.06029     0.15333    -0.07723
  
  S  H  19  -0.00349     0.20731    -0.21823     0.01645     0.08804    -0.05867
  
  S  H  20  -0.00008    -0.17335     0.20807    -0.01405    -0.06300    -0.04631
  
  S  C  21  -0.01021    -0.07352    -0.07078    -0.03539    -0.00685     0.02410
 PX  C  21   0.00634    -0.07843     0.08525    -0.00894     0.17511     0.01858
 PY  C  21  -0.24195    -0.01953     0.03923     0.06423     0.14170    -0.05241
 PZ  C  21   0.04687    -0.05081    -0.04152     0.14055     0.06946     0.25486
  
  S  C  22   0.00617     0.05377     0.00507     0.00855     0.03835    -0.01523
 PX  C  22   0.04274     0.13649     0.14946     0.10444    -0.19748    -0.01302
 PY  C  22   0.23168     0.04344    -0.13799    -0.08350    -0.09374     0.06988
 PZ  C  22   0.02936    -0.05045    -0.04035     0.10315     0.09453     0.23901
  
  S  C  23   0.02544    -0.05168    -0.00832    -0.02213     0.05404     0.00561
 PX  C  23  -0.09499    -0.14148    -0.21421    -0.07395    -0.02260     0.08931
 PY  C  23  -0.25209    -0.08016     0.10222     0.07406    -0.04526    -0.05303
 PZ  C  23   0.03303    -0.01764    -0.00617     0.12135     0.06879     0.22168
  
  S  C  24   0.07948     0.07525    -0.01483     0.00128    -0.03559     0.01105
 PX  C  24   0.07155     0.08372     0.20838     0.08602     0.06850    -0.04703
 PY  C  24  -0.11170     0.07906    -0.05204     0.01672     0.03147     0.02862
 PZ  C  24   0.02371    -0.04356    -0.05557     0.13858     0.05873     0.24945
  
  S  H  25   0.18112    -0.04922    -0.02804    -0.07286    -0.04389     0.05939
  
  S  H  26   0.04537     0.15609     0.13710     0.09311    -0.18637    -0.03353
  
  S  H  27  -0.22755    -0.15239    -0.01994     0.00705    -0.02622    -0.01150
  
  S  H  28  -0.07328     0.04560    -0.14705    -0.02372    -0.02762     0.06775
  
  S  C  29  -0.01009     0.02181     0.07182     0.00749    -0.00789    -0.02599
 PX  C  29  -0.01089     0.03629    -0.13830     0.01241    -0.16558     0.01338
 PY  C  29  -0.19525     0.00789     0.01675     0.07412    -0.20854     0.05889
 PZ  C  29   0.06546    -0.10204    -0.05185     0.22744     0.09726     0.28352
  
  S  C  30  -0.07719    -0.01401     0.00376     0.02682     0.03042     0.00360
 PX  C  30   0.00165    -0.04384     0.06789     0.00512    -0.21034     0.03256
 PY  C  30   0.13369    -0.05612    -0.09353    -0.08382     0.01442    -0.04020
 PZ  C  30   0.05812    -0.09288    -0.07290     0.22893     0.07883     0.27816




    ROOT NO.   31          32          33          34          35          36

           -13.14312   -12.86994   -12.22968   -11.82758   -11.80578   -11.34967
  
  
  S  C   1  -0.01230    -0.01038     0.01507    -0.00260    -0.00089     0.01888
 PX  C   1   0.20909    -0.19281    -0.08275     0.07106     0.01514     0.12435
 PY  C   1  -0.13264    -0.18067     0.19558    -0.03943     0.06010     0.08901
 PZ  C   1  -0.10412    -0.05319    -0.03096    -0.11475    -0.27258     0.09305
  
  S  C   2  -0.01253    -0.03217    -0.01573     0.02008    -0.00472    -0.03715
 PX  C   2  -0.20149     0.19546     0.03985    -0.06003    -0.04019    -0.15474
 PY  C   2   0.07001     0.15066    -0.21383     0.06812    -0.06260    -0.17122
 PZ  C   2  -0.08226    -0.05762    -0.05655    -0.07119    -0.21461     0.07396
  
  S  C   3  -0.00883     0.03008    -0.00542     0.00977    -0.00229     0.01171
 PX  C   3   0.13623    -0.20331    -0.11229     0.16361     0.03218     0.15528
 PY  C   3  -0.03046    -0.09382     0.28561    -0.13788     0.10335     0.17744
 PZ  C   3  -0.08651    -0.10568    -0.00938    -0.01796    -0.06338     0.06190
  
  S  C   4   0.02433    -0.02205     0.01777    -0.00965    -0.00468    -0.01801
 PX  C   4  -0.11291     0.14850     0.17240    -0.13686    -0.01504    -0.15023
 PY  C   4   0.06477     0.02185    -0.24073     0.14267    -0.09762    -0.19412
 PZ  C   4  -0.10251    -0.05834    -0.01478    -0.02984    -0.05565    -0.01646
  
  S  C   5  -0.01721    -0.00370    -0.03796     0.03755     0.00127     0.02606
 PX  C   5   0.12344    -0.17025    -0.14294     0.12191     0.02247     0.14139
 PY  C   5  -0.12890    -0.16095     0.16646    -0.04429     0.04836     0.11466
 PZ  C   5  -0.09320    -0.05570    -0.03262    -0.09013    -0.20668     0.05066
  
  S  C   6   0.01106    -0.01355     0.00076    -0.00432    -0.01235    -0.01286
 PX  C   6  -0.15610     0.13772     0.10240    -0.05819     0.00058    -0.10115
 PY  C   6   0.16273     0.18284    -0.18824     0.04174    -0.05214    -0.12248
 PZ  C   6  -0.10321    -0.03958    -0.03174    -0.12130    -0.27514     0.07352
  
  S  C   7   0.02393    -0.07860    -0.01087     0.03587    -0.02138    -0.02081
 PX  C   7  -0.13445     0.15434     0.10509    -0.14001    -0.04891    -0.17830
 PY  C   7  -0.15196    -0.08423    -0.08359     0.12023    -0.09374    -0.16283
 PZ  C   7  -0.05870    -0.02418     0.02823     0.04418     0.10238    -0.04658
  
  S  C   8  -0.04250     0.06197    -0.03371     0.05318    -0.00906    -0.00112
 PX  C   8  -0.10692    -0.09467    -0.06534     0.15022     0.01214     0.19427
 PY  C   8   0.04508    -0.02565     0.13933    -0.10852     0.07838     0.17559
 PZ  C   8  -0.04465    -0.02327     0.02451     0.05082     0.16852    -0.05687
  
  S  C   9   0.05487    -0.02711     0.00903    -0.01008    -0.00386     0.00401
 PX  C   9   0.14722     0.05335     0.09779    -0.19180    -0.01294    -0.17855
 PY  C   9  -0.16625    -0.15048     0.02035     0.20433    -0.13587    -0.18000
 PZ  C   9   0.01178     0.02242     0.04514     0.11357     0.31221    -0.13509
  
  S  C  10   0.00447     0.06194    -0.00044     0.00569    -0.00203     0.00040
 PX  C  10  -0.04788    -0.05026    -0.01142     0.19944    -0.03000     0.18791
 PY  C  10   0.25848     0.08585     0.03923    -0.20249     0.12727     0.18113
 PZ  C  10   0.00319     0.01696     0.04055     0.14093     0.26431    -0.08047
  
  S  C  11   0.03635    -0.06359     0.01496     0.05303    -0.00608     0.00689
 PX  C  11   0.06292    -0.00102     0.03006    -0.17283     0.00954    -0.18458
 PY  C  11  -0.06769    -0.10757     0.12457     0.11267    -0.12027    -0.11389
 PZ  C  11   0.02953     0.03730     0.01642     0.09134     0.09454    -0.02912
  
  S  H  12   0.09605     0.05083    -0.09013    -0.18114     0.10312     0.01886
  
  S  C  13  -0.03664     0.05645     0.00012     0.04638    -0.02791    -0.02816
 PX  C  13  -0.13960     0.13206     0.02499     0.16085     0.01408     0.20141
 PY  C  13   0.11227     0.08178    -0.08883    -0.13675     0.11758     0.15098
 PZ  C  13   0.04113     0.04265     0.02276     0.05419     0.15058    -0.09484
  
  S  H  14   0.07396     0.09798     0.12504    -0.16585     0.06519     0.05741
  
  S  H  15   0.00770     0.24736    -0.11818    -0.00054    -0.04900    -0.14023
  
  S  H  16  -0.16016    -0.03873     0.20673    -0.09009     0.04094     0.05530
  
  S  H  17  -0.17348    -0.04448     0.20463    -0.09056     0.03729     0.04092
  
  S  H  18   0.16201    -0.14296    -0.09739     0.06428     0.01403     0.09956
  
  S  H  19   0.06554     0.05454     0.13866    -0.15832     0.06634     0.06270
  
  S  H  20   0.13931     0.03544    -0.09399    -0.19875     0.09972     0.02538
  
  S  C  21  -0.00280    -0.01733     0.01365     0.03417    -0.02175     0.03206
 PX  C  21  -0.00900    -0.22596    -0.09154    -0.18596     0.02704    -0.16014
 PY  C  21   0.15327    -0.01632     0.15416     0.05212    -0.09236    -0.05383
 PZ  C  21   0.04100     0.06566    -0.04600    -0.09263    -0.21881     0.11744
  
  S  C  22  -0.03244     0.00694    -0.00109     0.00434     0.01218    -0.01563
 PX  C  22   0.07900     0.24290     0.06024     0.09195    -0.04379     0.11980
 PY  C  22  -0.21645     0.00483    -0.17401    -0.04901     0.09547     0.06316
 PZ  C  22   0.02894     0.03325    -0.06593    -0.14393    -0.26727     0.13666
  
  S  C  23  -0.02766    -0.01959    -0.02082    -0.01049     0.00701     0.01180
 PX  C  23   0.04614    -0.23970    -0.03431    -0.11723    -0.03844    -0.11151
 PY  C  23   0.26905     0.00987     0.18150     0.06180    -0.09769    -0.04046
 PZ  C  23   0.03112     0.08775    -0.05631    -0.12070    -0.24873     0.15227
  
  S  C  24  -0.02430     0.00934     0.02137     0.02221    -0.02448    -0.02480
 PX  C  24  -0.06167     0.23926    -0.01450     0.07635     0.02865     0.15050
 PY  C  24  -0.21393     0.05114    -0.21300    -0.06987     0.14475     0.10071
 PZ  C  24   0.03578     0.04860    -0.05848    -0.11323    -0.17864     0.08021
  
  S  H  25  -0.13339    -0.10725    -0.18145    -0.13493     0.09908    -0.02191
  
  S  H  26   0.05586     0.24596     0.05996     0.10612    -0.01704     0.11531
  
  S  H  27   0.23430    -0.12444     0.13289    -0.00590    -0.08657    -0.09913
  
  S  H  28  -0.14885    -0.07608    -0.17477    -0.11211     0.09372    -0.00136
  
  S  C  29  -0.01658     0.03529    -0.00404    -0.00129    -0.00180    -0.01630
 PX  C  29   0.03165     0.21094     0.10910     0.20477    -0.05045     0.17440
 PY  C  29   0.01214     0.04494    -0.22121    -0.16673     0.15949     0.10842
 PZ  C  29   0.06287     0.04949    -0.00944    -0.01475    -0.07558    -0.00064
  
  S  C  30   0.02505    -0.03036    -0.00393    -0.00486     0.00424     0.01118
 PX  C  30   0.18227    -0.15882    -0.03240    -0.19720     0.00602    -0.18300
 PY  C  30   0.13174    -0.06351     0.26582     0.17288    -0.17808    -0.09116
 PZ  C  30   0.06991     0.05822     0.00031    -0.01808    -0.04826    -0.02423




    ROOT NO.   37          38          39          40          41          42

           -10.65604    -9.82453    -9.65997    -8.37318    -7.99988    -6.75433
  
  
  S  C   1  -0.00258     0.00915    -0.00935     0.01056     0.01094    -0.01013
 PX  C   1  -0.01630     0.02476    -0.00797     0.00618     0.01493    -0.00689
 PY  C   1  -0.00554    -0.00660     0.00878    -0.00481    -0.01013     0.00481
 PZ  C   1   0.04241     0.21916    -0.31083     0.24253     0.27758    -0.20032
  
  S  C   2  -0.00767     0.00407     0.02042    -0.02292     0.00073     0.01516
 PX  C   2   0.01994    -0.02049    -0.00193     0.00257    -0.00799    -0.00187
 PY  C   2  -0.00764     0.00047     0.03101    -0.02913    -0.00152     0.01566
 PZ  C   2   0.16079    -0.07493    -0.35032     0.35697     0.01153    -0.23148
  
  S  C   3   0.00530    -0.01367    -0.00045    -0.00070    -0.01105     0.00955
 PX  C   3  -0.02980     0.02933     0.00732    -0.00776     0.03188     0.00330
 PY  C   3  -0.01805     0.03087     0.00492    -0.00262     0.01421    -0.00920
 PZ  C   3   0.20441    -0.34948    -0.09877     0.04814    -0.31637     0.13176
  
  S  C   4   0.00399     0.00520    -0.01253     0.00814     0.01890     0.00090
 PX  C   4   0.01894    -0.00264    -0.01580     0.00965     0.02165     0.00301
 PY  C   4   0.01148    -0.00757    -0.01323     0.00500     0.02540     0.01112
 PZ  C   4  -0.17632    -0.12231     0.34062    -0.07338    -0.37023    -0.13014
  
  S  C   5  -0.00192    -0.00216     0.00137    -0.00227    -0.00558     0.00088
 PX  C   5  -0.00653     0.00247    -0.00477     0.00162    -0.00469    -0.00312
 PY  C   5  -0.01046     0.00870     0.00405    -0.00380    -0.00241     0.00112
 PZ  C   5  -0.20067     0.28821     0.24435    -0.34302    -0.02770     0.22798
  
  S  C   6  -0.00134     0.01179    -0.00235    -0.00496     0.01133     0.00691
 PX  C   6   0.01566    -0.02793    -0.00053     0.00990    -0.01035    -0.00589
 PY  C   6   0.00932    -0.00922    -0.00276     0.00578     0.00134    -0.00454
 PZ  C   6  -0.12721     0.41046     0.00494    -0.20569     0.25313     0.18278
  
  S  C   7  -0.02017     0.01725     0.00707     0.00823     0.00521    -0.01962
 PX  C   7  -0.01428     0.01802     0.00869     0.02086    -0.01052    -0.03944
 PY  C   7   0.00690    -0.01109    -0.00300     0.00510     0.00308    -0.00326
 PZ  C   7   0.32759    -0.28493    -0.10442    -0.21393     0.03893     0.39229
  
  S  C   8  -0.01493    -0.00773     0.00938     0.00944    -0.00481    -0.01134
 PX  C   8  -0.00934     0.01097    -0.01963    -0.00885    -0.00487     0.02553
 PY  C   8   0.02159     0.01771    -0.02486    -0.01454    -0.00320     0.02176
 PZ  C   8  -0.29612    -0.08703     0.32092     0.17742    -0.00700    -0.38276
  
  S  C   9   0.00044     0.00519     0.00398    -0.00063    -0.00210    -0.00036
 PX  C   9   0.02759    -0.00511     0.00627    -0.00094    -0.00102    -0.01070
 PY  C   9  -0.00979    -0.01867     0.01085     0.00949     0.02027     0.00203
 PZ  C   9  -0.25168    -0.00018     0.05848     0.21371     0.35048    -0.03114
  
  S  C  10   0.01322    -0.00949    -0.00414    -0.00540     0.00936     0.01239
 PX  C  10  -0.05117    -0.00772     0.00610     0.02335    -0.02186     0.01391
 PY  C  10  -0.00713     0.01829    -0.00023     0.00225    -0.01653    -0.00365
 PZ  C  10   0.27874     0.00016    -0.01916    -0.24262     0.37151     0.02728
  
  S  C  11   0.03730     0.02957     0.00509    -0.02645    -0.00466    -0.04313
 PX  C  11   0.04746     0.01769    -0.00171    -0.01968     0.00821    -0.02415
 PY  C  11  -0.01426    -0.01832     0.00226     0.00272     0.00616     0.00303
 PZ  C  11   0.35837     0.28778     0.02832    -0.22598    -0.02596    -0.36243
  
  S  H  12   0.00444     0.00366    -0.00712     0.00738    -0.00229     0.01957
  
  S  C  13   0.00464    -0.00334     0.00478    -0.00393     0.00022    -0.01148
 PX  C  13  -0.01142     0.01220    -0.00948    -0.00115    -0.00873     0.00437
 PY  C  13  -0.00342     0.01000    -0.00767    -0.00429    -0.00980     0.00106
 PZ  C  13  -0.33812     0.09300    -0.24391     0.23960    -0.01619     0.36230
  
  S  H  14   0.00317     0.00821     0.00056    -0.00680    -0.00544     0.00320
  
  S  H  15   0.01182    -0.01530     0.00555    -0.00462    -0.01001     0.00406
  
  S  H  16   0.01099    -0.00843    -0.01398     0.01391    -0.00433    -0.00870
  
  S  H  17  -0.00298     0.00064     0.00357    -0.00045    -0.00402    -0.00107
  
  S  H  18  -0.00894     0.00656     0.00009     0.00116    -0.00437    -0.00468
  
  S  H  19   0.01867     0.00750    -0.00941    -0.00677    -0.00366     0.00378
  
  S  H  20  -0.00077     0.00467    -0.00523     0.00103    -0.00686     0.00329
  
  S  C  21   0.00185     0.00237     0.01207     0.01363    -0.00664     0.00716
 PX  C  21   0.02243    -0.00374     0.01364     0.01008     0.01364     0.01029
 PY  C  21   0.00565    -0.00643     0.01105     0.00805     0.00437     0.00647
 PZ  C  21   0.21153     0.04004     0.35079     0.33719     0.00620     0.20839
  
  S  C  22   0.00031     0.00935    -0.01156    -0.00693    -0.00802    -0.00534
 PX  C  22   0.00200    -0.01698     0.03384     0.02351     0.01916     0.01715
 PY  C  22   0.00010     0.00925    -0.00227     0.00273    -0.00493     0.00172
 PZ  C  22   0.08912    -0.20206     0.32951     0.21558     0.24855     0.17944
  
  S  C  23  -0.00759    -0.00718    -0.00612    -0.00713     0.00394    -0.00209
 PX  C  23  -0.00517    -0.04608     0.00478    -0.02963     0.03159    -0.02523
 PY  C  23  -0.00127    -0.00623     0.00397     0.00019    -0.00062    -0.00113
 PZ  C  23  -0.14304    -0.36203    -0.01628    -0.25784     0.24045    -0.20099
  
  S  C  24  -0.00419    -0.00885    -0.00071    -0.00463     0.00326    -0.00382
 PX  C  24  -0.02532    -0.00089    -0.02706    -0.01879    -0.01205    -0.00690
 PY  C  24   0.02258     0.03437     0.00851     0.01957    -0.00857     0.01161
 PZ  C  24  -0.24428    -0.25111    -0.24922    -0.34611    -0.00172    -0.20776
  
  S  H  25   0.00231     0.00495    -0.00884    -0.00799    -0.00048    -0.00627
  
  S  H  26  -0.00361     0.00112     0.00917     0.00891    -0.00047     0.00456
  
  S  H  27   0.00310    -0.01046     0.00683    -0.00059     0.00358    -0.00240
  
  S  H  28   0.01702     0.01314     0.00635     0.00537    -0.00162    -0.00000
  
  S  C  29  -0.01389    -0.02240     0.00093     0.00378     0.02359     0.01577
 PX  C  29  -0.00089     0.02291     0.00204     0.00225    -0.02857    -0.01117
 PY  C  29   0.01939     0.03140    -0.00034     0.00058    -0.01856    -0.01002
 PZ  C  29   0.24476     0.33349     0.04376     0.03814    -0.33829    -0.15102
  
  S  C  30  -0.00065     0.00361    -0.00667    -0.00346    -0.00317     0.00176
 PX  C  30   0.01488    -0.00959     0.01157     0.00078     0.00852    -0.00663
 PY  C  30  -0.00588    -0.03011     0.01800    -0.00142     0.02286    -0.00486
 PZ  C  30  -0.23587     0.11669    -0.33688    -0.00335    -0.33685     0.17320




    ROOT NO.   43          44          45          46          47          48

            -0.99125     0.19257     0.34808     1.26821     1.33925     1.81180
  
  
  S  C   1   0.00281     0.01918     0.00287     0.00133    -0.03089     0.00907
 PX  C   1   0.00223     0.00515     0.00307     0.00485    -0.00319    -0.00082
 PY  C   1  -0.01035    -0.00537     0.01352     0.01117     0.00231     0.00353
 PZ  C   1   0.19752     0.25722    -0.26564    -0.28063    -0.26084    -0.00919
  
  S  C   2   0.01512    -0.00611    -0.02879    -0.02685     0.01393    -0.00706
 PX  C   2  -0.00099     0.00379    -0.00383    -0.00549    -0.00508     0.00356
 PY  C   2   0.01420     0.00027    -0.02458    -0.02174     0.00233    -0.00383
 PZ  C   2  -0.22482     0.00629     0.35655     0.35536    -0.01108     0.15255
  
  S  C   3  -0.00190    -0.00427     0.00716     0.00629    -0.00669    -0.00769
 PX  C   3   0.02544     0.02156    -0.00433     0.01209    -0.03023     0.01426
 PY  C   3   0.00720     0.02353    -0.00594    -0.00467    -0.01964     0.00680
 PZ  C   3  -0.12947    -0.32226    -0.02340    -0.14575     0.32908    -0.23411
  
  S  C   4  -0.00041    -0.01927     0.01244     0.01326     0.01230    -0.00128
 PX  C   4   0.00092    -0.01748     0.00848     0.01354     0.00576     0.00930
 PY  C   4   0.00633    -0.02252     0.00577     0.01264     0.00677     0.00331
 PZ  C   4  -0.14039     0.35772    -0.10282    -0.33156    -0.16961    -0.17641
  
  S  C   5  -0.00012     0.01272    -0.00339    -0.00447    -0.01659     0.00847
 PX  C   5   0.00736     0.00652    -0.01513    -0.01189     0.00551    -0.00607
 PY  C   5   0.00075    -0.00294    -0.00123     0.00058     0.00668    -0.00250
 PZ  C   5  -0.22582     0.00596     0.34831     0.27541    -0.23574     0.23159
  
  S  C   6   0.00669    -0.02092    -0.00461     0.00411     0.03270    -0.01187
 PX  C   6  -0.00970     0.00672     0.01063     0.00438    -0.01255     0.00685
 PY  C   6  -0.00051     0.00590     0.00154    -0.00032    -0.01074     0.00307
 PZ  C   6   0.18724    -0.26474    -0.18888    -0.05127     0.39084    -0.17035
  
  S  C   7  -0.01869    -0.00229     0.00043    -0.01700     0.02519    -0.00129
 PX  C   7  -0.04130    -0.00252     0.01770    -0.01209     0.02763    -0.02165
 PY  C   7  -0.00594    -0.00664    -0.00465    -0.00089     0.00763     0.01709
 PZ  C   7   0.37294    -0.05701    -0.21419     0.13198    -0.23380     0.34505
  
  S  C   8   0.01865     0.00602    -0.00914     0.00803    -0.00042     0.00111
 PX  C   8  -0.01366     0.00057     0.01373    -0.00983    -0.00570    -0.01826
 PY  C   8  -0.01976    -0.00229     0.01201    -0.00915    -0.00285    -0.01112
 PZ  C   8   0.37872    -0.02385    -0.18802     0.30524     0.12590     0.27548
  
  S  C   9  -0.01423    -0.00906    -0.00801    -0.00749     0.00521     0.02143
 PX  C   9   0.00075     0.00308    -0.01540     0.00263     0.00484     0.01674
 PY  C   9   0.00220    -0.00097     0.00650     0.00223    -0.01175    -0.01638
 PZ  C   9  -0.02017    -0.32207     0.25980    -0.06041    -0.00892    -0.24164
  
  S  C  10   0.01429     0.01757     0.02525     0.01199    -0.02950    -0.05447
 PX  C  10   0.01838    -0.01853    -0.00129     0.00203    -0.01398    -0.00934
 PY  C  10  -0.00171    -0.00682    -0.00449    -0.00422     0.00608    -0.00146
 PZ  C  10  -0.02423     0.40027     0.21790    -0.01456    -0.02501    -0.29429
  
  S  C  11  -0.04026    -0.01648    -0.03987    -0.01545     0.04494     0.08626
 PX  C  11  -0.02179     0.00281    -0.00291    -0.00390     0.00881     0.00626
 PY  C  11   0.01011    -0.00683     0.00773     0.00121    -0.01523    -0.01228
 PZ  C  11  -0.35372    -0.00184    -0.22030    -0.06300     0.28769     0.32536
  
  S  H  12   0.02351     0.00823     0.02081     0.01064    -0.02950    -0.05426
  
  S  C  13   0.01598     0.00492     0.01008     0.00596     0.00722    -0.00952
 PX  C  13   0.00007    -0.00108     0.00488    -0.00566     0.00455     0.00433
 PY  C  13   0.00032    -0.00100     0.00285    -0.00040     0.00314    -0.00081
 PZ  C  13  -0.37123    -0.05048    -0.22264    -0.23367    -0.09824     0.32645
  
  S  H  14   0.00827     0.00268    -0.00771     0.00722    -0.01335     0.01255
  
  S  H  15  -0.00348    -0.00986    -0.00138    -0.00209     0.01774    -0.00570
  
  S  H  16  -0.00989     0.00323     0.01593     0.01550    -0.00708     0.00684
  
  S  H  17  -0.00259    -0.00385     0.00186    -0.00002     0.00846    -0.00590
  
  S  H  18  -0.00386     0.01526     0.00155    -0.00469    -0.02176     0.00716
  
  S  H  19  -0.00969     0.00079     0.00064    -0.00789     0.00119     0.00238
  
  S  H  20  -0.00395    -0.00073    -0.00720    -0.00369    -0.00048     0.01168
  
  S  C  21   0.01120    -0.00565     0.00654    -0.00978     0.00052     0.01870
 PX  C  21   0.00551     0.01206     0.01947    -0.01684     0.00630     0.00469
 PY  C  21   0.00289     0.00378     0.00411    -0.00161     0.00243     0.00044
 PZ  C  21   0.21409     0.02394     0.32987    -0.35124     0.01549     0.21083
  
  S  C  22   0.00705    -0.00479     0.01198    -0.01111    -0.00914    -0.00536
 PX  C  22  -0.01612     0.01667    -0.02063     0.02427     0.01726    -0.00709
 PY  C  22   0.00367     0.00016     0.00413    -0.00583     0.00404     0.00838
 PZ  C  22  -0.20354     0.21798    -0.24632     0.30373     0.23297    -0.09629
  
  S  C  23  -0.00986    -0.00355    -0.01537     0.01425    -0.01267    -0.01150
 PX  C  23  -0.01898    -0.02654    -0.01951     0.00341    -0.03301    -0.00990
 PY  C  23   0.00464    -0.00100     0.00622    -0.00565    -0.00140     0.00063
 PZ  C  23  -0.19791    -0.27370    -0.21176     0.04054    -0.38208    -0.12209
  
  S  C  24   0.00882     0.00617     0.01366    -0.01058     0.01592     0.00865
 PX  C  24   0.01624     0.00654     0.02369    -0.01733     0.01912     0.01613
 PY  C  24  -0.01142    -0.00359    -0.01615     0.01345    -0.01365    -0.01175
 PZ  C  24   0.22063     0.05262     0.33504    -0.26389     0.25687     0.23186
  
  S  H  25  -0.00479    -0.00109    -0.00456     0.00421    -0.00059    -0.00678
  
  S  H  26  -0.00292     0.00187    -0.00631     0.00466     0.00738     0.00719
  
  S  H  27   0.00600     0.00152     0.01014    -0.01038     0.00983     0.01004
  
  S  H  28  -0.00401    -0.00569    -0.00749     0.00511    -0.00870    -0.00266
  
  S  C  29  -0.00649     0.02810     0.00794     0.00407     0.00937    -0.02378
 PX  C  29   0.00319    -0.01882    -0.01074     0.01013    -0.01210    -0.00711
 PY  C  29  -0.00635    -0.01183    -0.01273    -0.00125     0.00566     0.01802
 PZ  C  29   0.17296    -0.33948     0.00423     0.08605    -0.35035    -0.23422
  
  S  C  30  -0.00559    -0.00645    -0.00695     0.00498    -0.01331    -0.00333
 PX  C  30   0.00098    -0.00391    -0.00472     0.00471    -0.00455    -0.00105
 PY  C  30  -0.00741    -0.00577     0.00092    -0.00856    -0.00549     0.00111
 PZ  C  30   0.16179     0.33573    -0.05680     0.33400     0.13691    -0.24235




    ROOT NO.   49          50          51          52          53          54

             2.38361     2.47499     2.82155     3.11175     3.26969     3.40523
  
  
  S  C   1  -0.01468    -0.09913    -0.17154     0.05753    -0.16335    -0.20024
 PX  C   1  -0.01850    -0.01712    -0.02079    -0.01696     0.00806    -0.05592
 PY  C   1  -0.00949    -0.01602    -0.03424     0.01170    -0.03802     0.02071
 PZ  C   1   0.29364    -0.10692     0.03006     0.22591     0.08804    -0.03683
  
  S  C   2   0.06361     0.12025     0.20370    -0.01304     0.13554     0.21924
 PX  C   2   0.02053     0.01428     0.00796     0.02108    -0.03202    -0.01237
 PY  C   2   0.03230     0.03487     0.04912     0.01511     0.00981     0.01109
 PZ  C   2  -0.22007     0.10397     0.00641    -0.25687    -0.07418     0.08069
  
  S  C   3  -0.09132    -0.19619    -0.27149     0.00844    -0.09373    -0.13682
 PX  C   3  -0.01012    -0.00384     0.05082    -0.04626     0.09622    -0.07280
 PY  C   3  -0.01727    -0.04137    -0.05124    -0.00353    -0.01874     0.12383
 PZ  C   3   0.07943    -0.03749     0.00968     0.31039     0.10678    -0.07070
  
  S  C   4   0.09205     0.22254     0.31820    -0.04444     0.15871    -0.18933
 PX  C   4   0.01534     0.00900    -0.02657     0.03384    -0.07436     0.03648
 PY  C   4   0.00433    -0.00540    -0.04119     0.01105    -0.04848    -0.11369
 PZ  C   4  -0.03203     0.03814    -0.00316    -0.28658    -0.09571     0.05426
  
  S  C   5  -0.05027    -0.16366    -0.26588     0.06901    -0.20460     0.15159
 PX  C   5  -0.03578    -0.05255    -0.06657    -0.01095    -0.01300     0.07416
 PY  C   5  -0.00711     0.00819     0.01650    -0.01730     0.02821     0.03278
 PZ  C   5   0.20629    -0.08068     0.02636     0.23497     0.08652    -0.03565
  
  S  C   6   0.00647     0.11599     0.19612    -0.09027     0.19564     0.01512
 PX  C   6   0.02131     0.02107     0.04000     0.00432     0.02785     0.01059
 PY  C   6   0.01558     0.00879     0.01094     0.00867    -0.00594    -0.10752
 PZ  C   6  -0.29127     0.09811    -0.04352    -0.21993    -0.09564     0.03270
  
  S  C   7   0.09799     0.19590     0.15040     0.04459    -0.13921     0.23036
 PX  C   7  -0.00592    -0.00534    -0.07878     0.03197    -0.10609     0.01175
 PY  C   7   0.03133     0.04587    -0.00438     0.01534    -0.08929     0.04435
 PZ  C   7   0.10885    -0.03737     0.00752    -0.13844    -0.06973     0.05319
  
  S  C   8  -0.09798    -0.19978    -0.17458     0.02072     0.09238     0.20570
 PX  C   8  -0.00569    -0.02659     0.05553    -0.02307     0.12928     0.00439
 PY  C   8   0.02468     0.04015     0.07948    -0.01652     0.06019    -0.03137
 PZ  C   8  -0.18192     0.07059     0.02851     0.11273     0.06572    -0.06801
  
  S  C   9   0.11450     0.24153     0.06532     0.01962    -0.32327    -0.14517
 PX  C   9   0.00062     0.02113    -0.07043     0.01947    -0.06616     0.05471
 PY  C   9  -0.01773    -0.00885    -0.04674    -0.02388     0.07450    -0.14841
 PZ  C   9   0.35902    -0.12807    -0.01924     0.03073    -0.04857     0.05269
  
  S  C  10  -0.13824    -0.22496    -0.04919    -0.06761     0.35957    -0.22287
 PX  C  10   0.00879     0.00769     0.07330    -0.00666    -0.02833    -0.04865
 PY  C  10  -0.00269    -0.02801     0.02583     0.00702     0.07077     0.11851
 PZ  C  10  -0.26835     0.14835     0.00395    -0.01091    -0.00155    -0.00800
  
  S  C  11   0.12806     0.19186    -0.09047     0.04536    -0.18038     0.19772
 PX  C  11  -0.01887    -0.02829    -0.07225    -0.01845     0.12897    -0.05765
 PY  C  11   0.02090     0.05371    -0.06891    -0.02246     0.02319     0.00326
 PZ  C  11   0.06515    -0.08494     0.01535     0.15284     0.04812    -0.03271
  
  S  H  12  -0.06758    -0.09799     0.04977    -0.03039     0.10906    -0.07361
  
  S  C  13  -0.08701    -0.24150     0.08057     0.01219     0.16050     0.27267
 PX  C  13  -0.00340    -0.02827     0.09115     0.00949    -0.07979     0.03921
 PY  C  13   0.02084     0.03020     0.03658     0.00706    -0.06283    -0.00031
 PZ  C  13  -0.19376     0.02427     0.01017    -0.17073     0.03186    -0.02693
  
  S  H  14  -0.04861    -0.10893    -0.09167    -0.02564     0.08130    -0.09708
  
  S  H  15   0.01044     0.05869     0.10032    -0.03017     0.09377     0.12858
  
  S  H  16  -0.03435    -0.06739    -0.12579     0.01364    -0.09912    -0.11510
  
  S  H  17   0.02733     0.09031     0.15766    -0.04038     0.13143    -0.07408
  
  S  H  18  -0.00339    -0.07669    -0.12652     0.06145    -0.12571     0.00251
  
  S  H  19   0.05224     0.10136     0.09667    -0.00756    -0.06994    -0.08189
  
  S  H  20   0.04919     0.13803    -0.05421    -0.00306    -0.11914    -0.13544
  
  S  C  21   0.08008     0.18974    -0.23652    -0.01510     0.13559     0.22364
 PX  C  21  -0.04193    -0.04846     0.03403     0.01653     0.05427     0.00899
 PY  C  21   0.00172     0.00701    -0.02239    -0.00385     0.05008     0.01695
 PZ  C  21  -0.24463     0.12452     0.01039     0.26802     0.00783    -0.00197
  
  S  C  22  -0.07180    -0.13821     0.22186     0.03093    -0.24151    -0.21441
 PX  C  22   0.03200     0.01665    -0.02855    -0.01829     0.01076    -0.01612
 PY  C  22   0.00705     0.00602     0.00683     0.00502    -0.05251     0.05842
 PZ  C  22   0.29702    -0.16090     0.00309    -0.24846    -0.02301    -0.02496
  
  S  C  23   0.04283     0.14510    -0.20202    -0.01649     0.23940    -0.00632
 PX  C  23  -0.03132    -0.01740     0.01660     0.02255     0.01592     0.10986
 PY  C  23  -0.01630    -0.02460     0.04353     0.00864    -0.04663    -0.06607
 PZ  C  23  -0.27708     0.14118     0.02152     0.24523    -0.01049     0.02022
  
  S  C  24  -0.06009    -0.19482     0.22094     0.02451    -0.16169     0.20154
 PX  C  24   0.02634     0.02054    -0.00480    -0.02143    -0.05360    -0.08394
 PY  C  24   0.01447     0.06079    -0.03743     0.00402    -0.01933    -0.05980
 PZ  C  24   0.19428    -0.10965    -0.02273    -0.26316     0.01397    -0.03824
  
  S  H  25  -0.04236    -0.11293     0.14769     0.00955    -0.09744    -0.11838
  
  S  H  26   0.04918     0.08790    -0.14306    -0.02214     0.15511     0.15352
  
  S  H  27  -0.02227    -0.08937     0.11672     0.00483    -0.13877     0.01422
  
  S  H  28   0.03832     0.11396    -0.14765    -0.01941     0.12135    -0.10735
  
  S  C  29  -0.12340    -0.24743     0.25000     0.02771    -0.00992    -0.08962
 PX  C  29   0.02114     0.01414     0.02608    -0.01170    -0.07602    -0.09727
 PY  C  29  -0.00027    -0.04516     0.06908     0.01963    -0.05875     0.14598
 PZ  C  29   0.07104    -0.06818     0.01514    -0.31360    -0.02098    -0.00669
  
  S  C  30   0.09848     0.26657    -0.23579    -0.03482     0.02745    -0.26588
 PX  C  30   0.00066     0.00399    -0.07014    -0.00194     0.08067     0.07343
 PY  C  30  -0.02384    -0.02788     0.01934    -0.00435     0.04231    -0.08466
 PZ  C  30  -0.01399     0.05893     0.00600     0.31879    -0.01074     0.03268




    ROOT NO.   55          56          57          58          59          60

             3.56025     3.58145     3.69635     3.90825     4.24833     4.33362
  
  
  S  C   1  -0.12138     0.23843     0.32977     0.00139     0.05355     0.01776
 PX  C   1   0.03581     0.00514    -0.02606     0.12659     0.10866     0.09869
 PY  C   1  -0.03131     0.01718     0.03873    -0.07838    -0.05166    -0.01822
 PZ  C   1  -0.10057    -0.05425    -0.05973     0.03265     0.00946    -0.00233
  
  S  C   2   0.01364    -0.16120    -0.13091    -0.23964    -0.23311    -0.20167
 PX  C   2  -0.06301     0.06922     0.14159    -0.08543    -0.02839    -0.01929
 PY  C   2  -0.04282     0.03125     0.09852    -0.04944     0.02435     0.04476
 PZ  C   2   0.14990     0.03588     0.03906    -0.06240    -0.03468    -0.00783
  
  S  C   3   0.10361    -0.02230    -0.23303     0.30130     0.11359    -0.01565
 PX  C   3   0.06236    -0.00975     0.00763     0.02878    -0.06107    -0.15308
 PY  C   3   0.02782    -0.08980    -0.13444    -0.08072    -0.07478    -0.02241
 PZ  C   3  -0.26416    -0.07719    -0.06213     0.03333     0.00970    -0.03274
  
  S  C   4  -0.03411     0.13617     0.28158     0.01757    -0.00079    -0.08295
 PX  C   4  -0.05215     0.01811    -0.00508    -0.12885    -0.13329    -0.15081
 PY  C   4   0.02550     0.03875    -0.07578     0.14037     0.01801    -0.12181
 PZ  C   4   0.25258     0.08213     0.07696    -0.03018    -0.01713    -0.00165
  
  S  C   5  -0.06046    -0.02902    -0.10031    -0.22871    -0.21888    -0.20784
 PX  C   5   0.04903    -0.07325    -0.13512     0.05158     0.05680     0.06496
 PY  C   5   0.04330    -0.05835    -0.10709     0.03628    -0.00291    -0.02203
 PZ  C   5  -0.13706    -0.05808    -0.05714     0.02661     0.01198     0.00142
  
  S  C   6   0.16476    -0.15543    -0.26089     0.24862     0.14551     0.08931
 PX  C   6  -0.00423    -0.01310    -0.00023    -0.01828    -0.01046     0.01604
 PY  C   6  -0.03123     0.09168     0.14067     0.06124     0.08163     0.06718
 PZ  C   6   0.09392     0.05975     0.06821    -0.04099    -0.01639    -0.00211
  
  S  C   7  -0.14583     0.04759     0.07286    -0.20401     0.04860     0.31318
 PX  C   7  -0.00871     0.00506    -0.10538     0.10741     0.08345     0.03610
 PY  C   7  -0.00378     0.02490    -0.03990     0.04402     0.04063    -0.03687
 PZ  C   7   0.22820     0.06841     0.04763    -0.03720    -0.01413     0.05242
  
  S  C   8  -0.00364    -0.18392     0.00841    -0.11361     0.08550     0.38268
 PX  C   8   0.01208    -0.01104     0.14161    -0.01461     0.02237    -0.04138
 PY  C   8   0.00060     0.02380     0.09115    -0.00930     0.01831     0.04109
 PZ  C   8  -0.24420    -0.04915    -0.04347     0.02989     0.00882    -0.03639
  
  S  C   9  -0.02113     0.15655    -0.24468     0.12842    -0.10253    -0.04907
 PX  C   9  -0.01937    -0.05906    -0.05251    -0.04163     0.01150     0.19366
 PY  C   9   0.03154    -0.05562     0.00655    -0.00616    -0.16790     0.05058
 PZ  C   9   0.33415     0.06823     0.05851    -0.03236    -0.02811     0.02733
  
  S  C  10   0.07355    -0.09332     0.14344    -0.02326    -0.17184    -0.06049
 PX  C  10  -0.02155     0.06442    -0.05599    -0.04579    -0.12770     0.11008
 PY  C  10  -0.02387    -0.04042     0.10022    -0.11422     0.06003     0.11883
 PZ  C  10  -0.32439    -0.06884    -0.06794     0.03642     0.05028    -0.02573
  
  S  C  11   0.01273    -0.09919     0.06144     0.05505     0.31605    -0.18360
 PX  C  11   0.03838    -0.08752     0.10791     0.02761    -0.02864    -0.05138
 PY  C  11  -0.01380    -0.08603     0.06168     0.02837    -0.02876    -0.00398
 PZ  C  11   0.23470     0.06628     0.03327    -0.02981    -0.09743     0.06106
  
  S  H  12  -0.03227     0.05536    -0.01894    -0.02293    -0.23856     0.16709
  
  S  C  13  -0.01143     0.09099     0.12266    -0.02138     0.30370    -0.23116
 PX  C  13  -0.02832     0.12244    -0.07302     0.08273    -0.05120     0.01700
 PY  C  13  -0.00344     0.06059    -0.03983     0.04452     0.05259    -0.07409
 PZ  C  13  -0.24735    -0.04252    -0.03811     0.01544     0.02684    -0.02044
  
  S  H  14   0.09937    -0.04637    -0.05030     0.11543    -0.02932    -0.27582
  
  S  H  15   0.06370    -0.14175    -0.18603    -0.00855    -0.01548     0.03687
  
  S  H  16  -0.02310     0.10759     0.10314     0.14221     0.18495     0.19873
  
  S  H  17   0.02964     0.01436     0.08738     0.13241     0.16972     0.20227
  
  S  H  18  -0.11422     0.09835     0.17973    -0.17900    -0.09249    -0.02599
  
  S  H  19  -0.00295     0.11678    -0.00882     0.05596    -0.05327    -0.32625
  
  S  H  20  -0.00715    -0.08118    -0.07108     0.03374    -0.26103     0.23452
  
  S  C  21  -0.05155    -0.00809     0.16545     0.27892    -0.20625     0.00578
 PX  C  21  -0.00365     0.17144    -0.08479     0.01888    -0.07392     0.03044
 PY  C  21  -0.00814     0.10008    -0.05489    -0.03061     0.03824    -0.00157
 PZ  C  21   0.15289     0.02022     0.02210    -0.02160     0.00176     0.00378
  
  S  C  22   0.06765    -0.31571     0.05623    -0.13327     0.08035    -0.00673
 PX  C  22  -0.00295    -0.01330    -0.00158    -0.01365    -0.01896     0.01836
 PY  C  22  -0.00905    -0.11989     0.11281     0.12363    -0.07327    -0.01392
 PZ  C  22  -0.11228    -0.04126    -0.01536    -0.00346     0.01259    -0.00465
  
  S  C  23  -0.00645     0.32283    -0.19215    -0.12955     0.03149     0.04437
 PX  C  23  -0.02185     0.07215     0.02509     0.12829    -0.10710     0.02523
 PY  C  23   0.02099    -0.05975    -0.00646    -0.06069     0.02525     0.01090
 PZ  C  23   0.11346    -0.00010     0.03171     0.00029     0.00406    -0.00526
  
  S  C  24  -0.05430    -0.04973     0.13998     0.31835    -0.22256     0.03308
 PX  C  24   0.01356    -0.14856     0.04576    -0.03304     0.02686    -0.02123
 PY  C  24   0.02171    -0.10580     0.05177     0.02673    -0.06671     0.00346
 PZ  C  24  -0.14300    -0.01203    -0.04147    -0.01348     0.00815     0.00207
  
  S  H  25   0.02978     0.00544    -0.10826    -0.20198     0.21200    -0.03273
  
  S  H  26  -0.04710     0.20937    -0.03583     0.08164    -0.00874    -0.01992
  
  S  H  27   0.00040    -0.19312     0.11672     0.06569     0.02791    -0.05346
  
  S  H  28   0.03213     0.04487    -0.09454    -0.24252     0.22563    -0.05219
  
  S  C  29   0.00086     0.30777    -0.23865    -0.10013    -0.06686     0.09726
 PX  C  29   0.01816    -0.07218    -0.04218    -0.12898     0.12507    -0.01752
 PY  C  29  -0.02244     0.08117    -0.00378     0.06543     0.09187    -0.06077
 PZ  C  29  -0.25584    -0.02004    -0.06265     0.01467     0.01939    -0.00651
  
  S  C  30   0.06338    -0.28176     0.05500    -0.13663    -0.02166     0.02903
 PX  C  30   0.00632    -0.03216     0.06223    -0.04634     0.16294    -0.10779
 PY  C  30   0.00907     0.11866    -0.12707    -0.13704     0.04394     0.03406
 PZ  C  30   0.25398     0.04492     0.04573    -0.00751    -0.01510     0.00602




    ROOT NO.   61          62          63          64          65          66

             5.22291     5.38587     5.52273     5.66172     6.10017     6.51856
  
  
  S  C   1   0.02238     0.00028    -0.26068    -0.21503    -0.07565     0.01991
 PX  C   1  -0.09057     0.05704     0.03997     0.19310     0.13559    -0.05610
 PY  C   1   0.04169    -0.04031     0.26011     0.12283     0.02372    -0.00331
 PZ  C   1  -0.00378     0.00127     0.01726     0.01854     0.00831    -0.00276
  
  S  C   2   0.13132    -0.07761    -0.01773    -0.21382    -0.13658     0.05048
 PX  C   2   0.03736    -0.01211    -0.15866    -0.16092    -0.06246     0.01739
 PY  C   2  -0.03255     0.03049     0.00049     0.14307     0.20368    -0.17036
 PZ  C   2   0.01235    -0.00700     0.00113    -0.01695    -0.00765    -0.00116
  
  S  C   3  -0.02525    -0.01193     0.07832    -0.03256    -0.16593     0.16572
 PX  C   3   0.13265    -0.07960     0.04199    -0.08390     0.05862    -0.11395
 PY  C   3   0.02507    -0.01830    -0.00670    -0.10758    -0.14224     0.10566
 PZ  C   3   0.01402    -0.00771    -0.00736    -0.01195     0.00811    -0.01375
  
  S  C   4   0.04252    -0.01439    -0.01465     0.04060     0.13501    -0.10792
 PX  C   4  -0.09569     0.07322    -0.08343     0.12490     0.11267    -0.05413
 PY  C   4  -0.07126     0.02213     0.06008     0.05325    -0.12383     0.18620
 PZ  C   4  -0.00554     0.00438    -0.00339     0.00895     0.00796    -0.00134
  
  S  C   5  -0.11640     0.09224    -0.13512     0.13270     0.14205    -0.06654
 PX  C   5  -0.02222     0.00347    -0.01448    -0.05317    -0.10905     0.08928
 PY  C   5  -0.09874     0.08405    -0.22928     0.04306     0.13290    -0.09481
 PZ  C   5  -0.00279     0.00156    -0.00435    -0.00013    -0.00130     0.00241
  
  S  C   6  -0.11778     0.08854    -0.27694    -0.01533     0.05195    -0.02465
 PX  C   6   0.07857    -0.07158     0.29440     0.05191    -0.05762     0.03610
 PY  C   6   0.05526    -0.03752    -0.05537    -0.15512    -0.10485     0.03972
 PZ  C   6   0.01350    -0.01028     0.03041    -0.00087    -0.00798     0.00302
  
  S  C   7  -0.19919     0.11599    -0.06162     0.09927    -0.08916     0.14846
 PX  C   7  -0.04871     0.00692     0.00235    -0.03609    -0.13209     0.14555
 PY  C   7   0.05054    -0.05868     0.03732    -0.07652     0.05486    -0.22671
 PZ  C   7  -0.02784     0.01516    -0.00049     0.00682    -0.02360     0.02424
  
  S  C   8   0.16561    -0.07980    -0.02299    -0.14669     0.05392    -0.15924
 PX  C   8  -0.00772     0.00956    -0.04919     0.07883     0.04447     0.17393
 PY  C   8   0.06027    -0.02764    -0.03959    -0.05890     0.08759    -0.22119
 PZ  C   8  -0.00830     0.00352    -0.00225     0.01217     0.00010     0.00948
  
  S  C   9  -0.02339     0.00603     0.08561    -0.09171    -0.06648    -0.19634
 PX  C   9   0.12190    -0.06297    -0.00527    -0.09979     0.04552    -0.13355
 PY  C   9   0.08929     0.01641    -0.03150     0.05555     0.09953     0.15596
 PZ  C   9   0.00189     0.00235     0.00091    -0.00494     0.00195    -0.00549
  
  S  C  10   0.02064     0.04875    -0.02821     0.10478     0.05101     0.14478
 PX  C  10  -0.15845     0.08842     0.04201    -0.00691    -0.13341    -0.08674
[...]
  S   H   18   -0.0757    0.0437    0.0149    0.0535   -0.0025    0.0037    0.3027    0.0201
  S   H   19   -0.0691    0.2934   -0.0672   -0.2600    0.1937   -0.0098    0.0534    0.2002
  S   H   20    0.2426    0.2478   -0.1818    0.0348    0.1809    0.0395   -0.0094   -0.2065
  S   C   21    0.0809    0.0090    0.0124    0.0005   -0.0088    0.0778   -0.0004    0.0493
  Px  C   21    0.1004    0.0059    0.3582   -0.1093    0.0601   -0.0821    0.0016    0.0087
  Py  C   21   -0.1155   -0.0310   -0.1351    0.0442   -0.0050    0.2949   -0.0018    0.1866
  Pz  C   21   -0.0143   -0.0033   -0.0199    0.0057   -0.0012   -0.0041    0.0001   -0.0051
  S   C   22    0.0396    0.0179   -0.0576    0.0152   -0.0109   -0.1352    0.0008   -0.0743
  Px  C   22    0.0507    0.0231   -0.0860    0.0281   -0.0048    0.5006   -0.0026    0.1978
  Py  C   22    0.0636   -0.0018    0.0632   -0.0154    0.0136   -0.0431    0.0010    0.0519
  Pz  C   22    0.0002    0.0002    0.0022   -0.0009   -0.0015   -0.0494    0.0002   -0.0208
  S   C   23   -0.0424    0.0071   -0.0678    0.0172   -0.0087    0.0780   -0.0006   -0.0354
  Px  C   23   -0.0905   -0.0175    0.0079   -0.0013    0.0133   -0.1802    0.0003    0.1573
  Py  C   23   -0.0092    0.0130   -0.0910    0.0267   -0.0122   -0.4802    0.0030   -0.0212
  Pz  C   23    0.0105    0.0020    0.0002   -0.0001   -0.0011    0.0129    0.0000   -0.0147
  S   C   24   -0.0876   -0.0189   -0.0034    0.0034   -0.0097   -0.0608    0.0004    0.0976
  Px  C   24    0.0400   -0.0029    0.0770   -0.0197    0.0225   -0.1574    0.0005    0.1487
  Py  C   24   -0.2130   -0.1272    0.3040   -0.1034    0.0755    0.2076   -0.0028   -0.2632
  Pz  C   24   -0.0096   -0.0061    0.0119   -0.0043    0.0028    0.0191   -0.0001   -0.0241
  S   H   25   -0.1492   -0.0215   -0.2376    0.0724   -0.0252    0.1680   -0.0014    0.0852
  S   H   26   -0.0641   -0.0253    0.0640   -0.0198    0.0023   -0.2908    0.0014   -0.1154
  S   H   27    0.0792    0.0031    0.0660   -0.0177    0.0001    0.3278   -0.0016   -0.0284
  S   H   28    0.1975    0.0894   -0.1732    0.0596   -0.0353   -0.1501    0.0016    0.1690
  S   C   29    0.1192    0.0213    0.2953   -0.0853    0.0780    0.0218   -0.0009    0.0298
  Px  C   29   -0.0620   -0.0216    0.1015   -0.0369    0.0573   -0.1001    0.0028   -0.0088
  Py  C   29    0.1961    0.1245   -0.0892    0.0288   -0.0980   -0.0337   -0.0031   -0.0117
  Pz  C   29    0.0205    0.0060    0.0296   -0.0084    0.0069    0.0079   -0.0004    0.0027
  S   C   30   -0.1832   -0.1122    0.2426   -0.0766    0.0902   -0.0032    0.0009    0.0221
  Px  C   30   -0.1084   -0.0616   -0.0913    0.0137   -0.0150    0.0661    0.0007   -0.2759
  Py  C   30    0.1219    0.0411    0.1765   -0.0545    0.0853    0.0806   -0.0045   -0.1176
  Pz  C   30    0.0069    0.0039   -0.0013   -0.0003   -0.0044    0.0031   -0.0002   -0.0051


   Root No.      73        74        75        76        77        78        79        80

                73 ????   74 ????   18 b      19 b      77 ????   78 ????   20 b      80 ????

                 9.435     9.529    10.093    10.682    10.990    11.621    11.770    12.140
  
  S   C    1    0.0111    0.0751    0.0367    0.0635   -0.0253    0.0297    0.0101    0.0120
  Px  C    1    0.0915    0.2210   -0.0614    0.1891    0.1746   -0.1469   -0.1356    0.1772
  Py  C    1   -0.0579    0.1254    0.1948    0.0622   -0.2037    0.1869    0.1194   -0.0884
  Pz  C    1   -0.0051   -0.0038    0.0062   -0.0041   -0.0080    0.0060    0.0062   -0.0079
  S   C    2   -0.0674   -0.0741    0.0716   -0.0216   -0.0893    0.0827    0.0219    0.0126
  Px  C    2    0.0832    0.2379   -0.0072    0.2221    0.0980   -0.0613   -0.1137    0.2037
  Py  C    2   -0.2068   -0.1790    0.1864    0.0422   -0.1659    0.1721   -0.0196    0.1490
  Pz  C    2   -0.0184   -0.0158    0.0190    0.0017   -0.0191    0.0186    0.0006    0.0116
  S   C    3   -0.0018   -0.0384    0.0015   -0.0587   -0.0332    0.0246    0.0112   -0.0098
  Px  C    3   -0.2381   -0.1081    0.2649    0.0438   -0.0765   -0.1383    0.0770   -0.1761
  Py  C    3   -0.0851   -0.0242    0.1099    0.1085   -0.1645    0.3039   -0.1186    0.3876
  Pz  C    3   -0.0195   -0.0078    0.0230    0.0108   -0.0120    0.0042   -0.0013    0.0077
  S   C    4   -0.0266   -0.0330    0.0092   -0.0589    0.0202   -0.0410   -0.0139   -0.0057
  Px  C    4    0.0226   -0.1621   -0.2204    0.1103    0.2016   -0.1116    0.1017   -0.1964
  Py  C    4    0.0295   -0.1411   -0.1414    0.0160   -0.0325    0.3095   -0.1110    0.3684
  Pz  C    4    0.0006   -0.0170   -0.0158    0.0026    0.0080    0.0082   -0.0015    0.0079
  S   C    5   -0.0398   -0.1014   -0.0460   -0.0450    0.0717   -0.0769   -0.0267   -0.0013
  Px  C    5    0.0411   -0.0833   -0.1659    0.1640    0.1298   -0.0431    0.1257   -0.2029
  Py  C    5    0.1418    0.3305    0.0816    0.1763   -0.1273    0.1688    0.1056   -0.0733
  Pz  C    5   -0.0002   -0.0025   -0.0034    0.0029    0.0037   -0.0019    0.0023   -0.0046
  S   C    6    0.0611    0.0664   -0.0508    0.0722    0.0476   -0.0167    0.0020   -0.0044
  Px  C    6    0.2009    0.1870   -0.1522    0.1694    0.1178   -0.0388   -0.0005   -0.0002
  Py  C    6    0.0377    0.1717    0.1286    0.1491   -0.2130    0.2513    0.2021   -0.1813
  Pz  C    6    0.0062    0.0083   -0.0011    0.0073   -0.0018    0.0044    0.0035   -0.0025
  S   C    7    0.1050    0.0137   -0.0802   -0.0693   -0.0271    0.0610    0.0225    0.0186
  Px  C    7   -0.1579   -0.1162    0.1797   -0.0323   -0.0957   -0.0821    0.1148   -0.1804
  Py  C    7    0.3366   -0.0001   -0.1438   -0.2312   -0.1286    0.1077    0.1357   -0.0259
  Pz  C    7   -0.0072   -0.0085    0.0108   -0.0065   -0.0101   -0.0045    0.0116   -0.0143
  S   C    8   -0.0319    0.0466    0.0687   -0.0788    0.0154   -0.0769   -0.0456   -0.0197
  Px  C    8   -0.0908   -0.0290    0.0128   -0.1989    0.1196   -0.0357   -0.1910    0.1309
  Py  C    8    0.0569   -0.1934   -0.1923    0.1264    0.0216    0.1705    0.0168    0.1501
  Pz  C    8    0.0007   -0.0144   -0.0147    0.0000    0.0064    0.0121   -0.0055    0.0144
  S   C    9    0.0086    0.0371    0.0277    0.0018   -0.0136   -0.0300   -0.0009   -0.0107
  Px  C    9   -0.1238    0.0136    0.0694   -0.2459    0.1453   -0.1117   -0.2139    0.0976
  Py  C    9   -0.0639    0.0374   -0.1052   -0.1658    0.1058    0.0703    0.4020    0.0115
  Pz  C    9   -0.0009    0.0006    0.0043   -0.0010    0.0012   -0.0044   -0.0118    0.0009
  S   C   10    0.0054    0.0283   -0.0405    0.0014    0.0063    0.0241    0.0101    0.0003
  Px  C   10    0.2886   -0.0013    0.0223   -0.2204   -0.2256   -0.0095   -0.2455   -0.0689
  Py  C   10    0.1505   -0.0608   -0.1181   -0.1501   -0.0915    0.1339    0.3813   -0.0724
  Pz  C   10    0.0210   -0.0043    0.0002   -0.0169   -0.0131    0.0039   -0.0029   -0.0058
  S   C   11   -0.1043    0.0311   -0.0645    0.0636    0.0637    0.0589    0.0327   -0.0083
  Px  C   11    0.2064    0.0277   -0.0254   -0.1853   -0.1513    0.0463   -0.2247   -0.0799
  Py  C   11   -0.3177    0.1397   -0.1978    0.0961    0.0978    0.1813   -0.0311   -0.0897
  Pz  C   11   -0.0063   -0.0026    0.0076    0.0030    0.0015   -0.0079    0.0063    0.0028
  S   H   12   -0.2269    0.0630   -0.0926    0.0894    0.0986    0.0881    0.0504   -0.0266
  S   C   13    0.0377    0.0319    0.0662    0.0871   -0.0575   -0.0681   -0.0373   -0.0028
  Px  C   13    0.0093    0.1507    0.1301   -0.0224   -0.0165   -0.1981    0.1314    0.0826
  Py  C   13   -0.0934   -0.0194   -0.0929   -0.2433    0.1224    0.0473    0.1633    0.0225
  Pz  C   13    0.0007   -0.0005    0.0012    0.0011   -0.0006   -0.0014    0.0000    0.0003
  S   H   14    0.2221    0.0304   -0.1244   -0.1011   -0.0404    0.0853    0.0443    0.0408
  S   H   15   -0.0074    0.1336    0.0869    0.0916   -0.0551    0.0558    0.0197    0.0106
  S   H   16   -0.1266   -0.1601    0.0920   -0.0426   -0.1109    0.1070    0.0212    0.0211
  S   H   17   -0.0514   -0.1881   -0.0976   -0.0303    0.1060   -0.0996   -0.0142   -0.0264
  S   H   18    0.1210    0.1126   -0.0886    0.1004    0.0660   -0.0215    0.0022   -0.0031
  S   H   19   -0.0599    0.0892    0.1031   -0.1113    0.0265   -0.1029   -0.0648   -0.0437
  S   H   20    0.0484    0.0506    0.0796    0.1030   -0.0693   -0.0829   -0.0465    0.0153
  S   C   21    0.0698   -0.0795    0.0963    0.0228    0.1029    0.0325    0.0389    0.0269
  Px  C   21   -0.1361    0.0387   -0.1667    0.1707   -0.1317   -0.1235    0.1128    0.1463
  Py  C   21    0.1551   -0.2440    0.1577    0.1536    0.1679    0.0189    0.1316    0.1280
  Pz  C   21   -0.0019    0.0062   -0.0012   -0.0102   -0.0019    0.0043   -0.0096   -0.0110
  S   C   22   -0.0017    0.0668    0.0318   -0.0831    0.0278    0.0156    0.0001   -0.0026
  Px  C   22   -0.0165   -0.1559   -0.0949    0.1698   -0.0704   -0.0276   -0.0160   -0.0135
  Py  C   22    0.1111   -0.1210    0.2016    0.0987    0.2476    0.0162    0.2380    0.2347
  Pz  C   22    0.0028    0.0161    0.0119   -0.0187    0.0099    0.0043    0.0019    0.0014
  S   C   23   -0.0524    0.0678   -0.0529   -0.0716   -0.0334   -0.0043    0.0005    0.0141
  Px  C   23    0.0992   -0.2117   -0.0269    0.2477   -0.1375   -0.0251   -0.1914   -0.2211
  Py  C   23    0.1585   -0.0859    0.2326    0.0327    0.2072    0.0253    0.1402    0.1266
  Pz  C   23   -0.0080    0.0186    0.0043   -0.0212    0.0137    0.0012    0.0197    0.0225
  S   C   24    0.0191   -0.0893   -0.0631    0.0585   -0.0940   -0.0363   -0.0323   -0.0201
  Px  C   24    0.1182   -0.2175    0.0402    0.2626   -0.0441    0.0146   -0.1716   -0.2241
  Py  C   24   -0.0110    0.1838    0.1823   -0.0061    0.1999    0.1038   -0.0392   -0.0918
  Pz  C   24   -0.0085    0.0249    0.0088   -0.0193    0.0170    0.0061    0.0105    0.0100
  S   H   25    0.1131   -0.1253    0.1228    0.0205    0.1223    0.0506    0.0285    0.0157
  S   H   26    0.0103    0.0913    0.0532   -0.0993    0.0391    0.0178    0.0055    0.0044
  S   H   27   -0.1164    0.1060   -0.1188   -0.0893   -0.0705   -0.0095   -0.0133    0.0025
  S   H   28    0.0389   -0.1499   -0.0757    0.0782   -0.1121   -0.0512   -0.0291   -0.0179
  S   C   29    0.0117   -0.0416    0.0235    0.0521    0.0380    0.0038    0.0241    0.0167
  Px  C   29   -0.2030    0.0924   -0.2635    0.1443   -0.2271   -0.1489    0.0858    0.1259
  Py  C   29   -0.1412    0.0981   -0.1267   -0.0302    0.2017    0.3559   -0.1632   -0.2032
  Pz  C   29    0.0182   -0.0112    0.0204   -0.0047    0.0107   -0.0005    0.0024    0.0005
  S   C   30    0.0218   -0.0433    0.0036    0.0614   -0.0250   -0.0058   -0.0205   -0.0174
  Px  C   30    0.0507    0.1578    0.2049    0.0552   -0.0602   -0.2558    0.0854    0.0673
  Py  C   30    0.0258    0.0456    0.1678    0.0444    0.3159    0.2992   -0.1619   -0.2414
  Pz  C   30    0.0010    0.0032    0.0052   -0.0001    0.0095    0.0092   -0.0063   -0.0082


   Root No.      81        82        83        84

                81 ????   82 ????   21 a      21 b   

                12.508    12.734    13.156    14.450
  
  S   C    1    0.0531    0.0311   -0.0110    0.0371
  Px  C    1    0.0884    0.3000   -0.1684    0.1083
  Py  C    1    0.0866   -0.1267    0.0909    0.0221
  Pz  C    1   -0.0001   -0.0107    0.0060   -0.0020
  S   C    2    0.0168   -0.0066    0.0123    0.0283
  Px  C    2    0.1305    0.3210   -0.1676    0.1502
  Py  C    2    0.0982    0.1332   -0.0379    0.1223
  Pz  C    2    0.0079    0.0100   -0.0028    0.0109
  S   C    3   -0.0177   -0.0106   -0.0044    0.0193
  Px  C    3    0.2135    0.2012   -0.2381    0.2298
  Py  C    3    0.0440    0.1901    0.0114    0.1038
  Pz  C    3    0.0179    0.0254   -0.0173    0.0210
  S   C    4   -0.0092   -0.0037    0.0063    0.0252
  Px  C    4    0.3198   -0.0995    0.1086    0.2057
  Py  C    4    0.0739    0.0143    0.2013    0.1236
  Pz  C    4    0.0186   -0.0057    0.0161    0.0171
  S   C    5   -0.0008    0.0245   -0.0179    0.0211
  Px  C    5    0.3256   -0.1160    0.1085    0.1724
  Py  C    5    0.1462   -0.1152    0.1026    0.0456
  Pz  C    5    0.0078   -0.0028    0.0028    0.0046
  S   C    6    0.0686    0.0140    0.0045    0.0389
  Px  C    6    0.1380    0.0379    0.0041    0.0764
  Py  C    6    0.2052   -0.2355    0.1791    0.0582
  Pz  C    6    0.0065   -0.0027    0.0028    0.0025
  S   C    7   -0.0675   -0.0165    0.0111    0.0060
  Px  C    7    0.1620    0.1924   -0.2406    0.2522
  Py  C    7   -0.0701    0.1090   -0.0998    0.1507
  Pz  C    7    0.0101    0.0165   -0.0206    0.0225
  S   C    8   -0.0361   -0.0300    0.0059    0.0209
  Px  C    8    0.1580   -0.1441    0.2351    0.2747
  Py  C    8    0.1456    0.0175    0.1287    0.1138
  Pz  C    8    0.0168   -0.0042    0.0162    0.0176
  S   C    9   -0.0606    0.0007    0.0014    0.0008
  Px  C    9    0.0973   -0.1551    0.2320    0.2810
  Py  C    9   -0.1548    0.2357    0.1477    0.1423
  Pz  C    9    0.0057   -0.0073    0.0015    0.0026
  S   C   10   -0.0575   -0.0290   -0.0007   -0.0024
  Px  C   10    0.0428   -0.1327   -0.2237    0.2736
  Py  C   10   -0.0811    0.2753   -0.1042    0.1376
  Pz  C   10    0.0041    0.0032   -0.0137    0.0167
  S   C   11   -0.0687   -0.0160   -0.0121   -0.0063
  Px  C   11   -0.0290   -0.1657   -0.2301    0.2651
  Py  C   11   -0.1726   -0.0900   -0.1502    0.1287
  Pz  C   11    0.0079    0.0092    0.0104   -0.0090
  S   H   12   -0.0691    0.0113   -0.0109   -0.0083
  S   C   13   -0.0452   -0.0245    0.0036   -0.0120
  Px  C   13   -0.2069    0.0428    0.2692    0.2534
  Py  C   13   -0.0388    0.1014    0.1374    0.1609
  Pz  C   13   -0.0008    0.0002    0.0014   -0.0004
  S   H   14   -0.0706    0.0137    0.0138    0.0074
  S   H   15    0.0688    0.0228   -0.0013    0.0392
  S   H   16    0.0054   -0.0259    0.0305    0.0121
  S   H   17    0.0236    0.0228   -0.0207    0.0226
  S   H   18    0.0770    0.0204    0.0014    0.0392
  S   H   19   -0.0165   -0.0496   -0.0021    0.0167
  S   H   20   -0.0246   -0.0389    0.0063   -0.0079
  S   C   21    0.0074   -0.0214   -0.0214   -0.0226
  Px  C   21   -0.1904   -0.2387   -0.1472    0.1827
  Py  C   21   -0.0906   -0.1846   -0.1433    0.0674
  Pz  C   21    0.0094    0.0157    0.0106   -0.0090
  S   C   22    0.0631    0.0356    0.0162   -0.0422
  Px  C   22   -0.1200   -0.0469   -0.0126    0.0746
  Py  C   22   -0.0788   -0.2826   -0.2273    0.0808
  Pz  C   22    0.0124    0.0045    0.0007   -0.0073
  S   C   23    0.0693    0.0085   -0.0145   -0.0402
  Px  C   23   -0.2120    0.1523    0.1973    0.0955
  Py  C   23   -0.0318   -0.1367   -0.1062    0.0340
  Pz  C   23    0.0180   -0.0164   -0.0193   -0.0074
  S   C   24    0.0065    0.0230    0.0179   -0.0243
  Px  C   24   -0.2657    0.1352    0.1949    0.1381
  Py  C   24   -0.1590    0.0233    0.0576    0.1176
  Pz  C   24    0.0085   -0.0074   -0.0093   -0.0018
  S   H   25    0.0069   -0.0210   -0.0288   -0.0137
  S   H   26    0.0664    0.0270    0.0067   -0.0385
  S   H   27    0.0756    0.0236   -0.0024   -0.0407
  S   H   28   -0.0043    0.0255    0.0306   -0.0106
  S   C   29   -0.0107   -0.0066    0.0082   -0.0266
  Px  C   29   -0.1911   -0.2244   -0.1436    0.2141
  Py  C   29   -0.1348   -0.0679   -0.2094    0.1380
  Pz  C   29    0.0141    0.0137    0.0139   -0.0171
  S   C   30   -0.0062    0.0009   -0.0139   -0.0295
  Px  C   30   -0.2335    0.0250    0.2621    0.2277
  Py  C   30   -0.1814    0.0681    0.0149    0.1066
  Pz  C   30   -0.0063    0.0024    0.0015    0.0042


              NET ATOMIC CHARGES AND DIPOLE CONTRIBUTIONS

  ATOM NO.   TYPE          CHARGE      No. of ELECS.   s-Pop       p-Pop       
    1          C          -0.030084        4.0301     1.10076     2.92932
    2          C          -0.031036        4.0310     1.09624     2.93480
    3          C           0.017844        3.9822     1.05986     2.92229
    4          C           0.002735        3.9973     1.08047     2.91680
    5          C          -0.028831        4.0288     1.09789     2.93094
    6          C          -0.028154        4.0282     1.09686     2.93130
    7          C          -0.044855        4.0449     1.10171     2.94315
    8          C          -0.037041        4.0370     1.09736     2.93968
    9          C           0.019751        3.9802     1.05255     2.92770
   10          C           0.009564        3.9904     1.07414     2.91629
   11          C          -0.041051        4.0411     1.09778     2.94327
   12          H           0.029429        0.9706     0.97057
   13          C          -0.030115        4.0301     1.10232     2.92780
   14          H           0.027268        0.9727     0.97273
   15          H           0.020110        0.9799     0.97989
   16          H           0.028511        0.9715     0.97149
   17          H           0.029097        0.9709     0.97090
   18          H           0.028919        0.9711     0.97108
   19          H           0.028208        0.9718     0.97179
   20          H           0.021832        0.9782     0.97817
   21          C          -0.021771        4.0218     1.09645     2.92532
   22          C          -0.019664        4.0197     1.10179     2.91787
   23          C          -0.029374        4.0294     1.09566     2.93371
   24          C          -0.026225        4.0262     1.10472     2.92151
   25          H           0.021699        0.9783     0.97830
   26          H           0.018656        0.9813     0.98134
   27          H           0.027090        0.9729     0.97291
   28          H           0.027386        0.9726     0.97261
   29          C           0.011205        3.9888     1.07859     2.91021
   30          C          -0.001103        4.0011     1.08346     2.91765
 DIPOLE           X         Y         Z       TOTAL
 POINT-CHG.     0.004     0.150    -0.035     0.154
 HYBRID        -0.128     0.012    -0.232     0.265
 SUM           -0.123     0.162    -0.267     0.335


          ATOMIC ORBITAL ELECTRON POPULATIONS

     Atom    s        px        py        pz   
    1  C   1.10076   0.97748   0.95274   0.99909
    2  C   1.09624   0.97116   0.96077   1.00287
    3  C   1.05986   0.97213   0.97443   0.97574
    4  C   1.08047   0.95338   0.97396   0.98945
    5  C   1.09789   0.95844   0.96812   1.00438
    6  C   1.09686   0.94029   0.99298   0.99803
    7  C   1.10171   0.96856   0.95090   1.02369
    8  C   1.09736   0.96892   0.95796   1.01280
    9  C   1.05255   0.97346   0.97065   0.98359
   10  C   1.07414   0.96859   0.97001   0.97770
   11  C   1.09778   0.96392   0.95957   1.01978
   12  H   0.97057
   13  C   1.10232   0.96966   0.94996   1.00818
   14  H   0.97273
   15  H   0.97989
   16  H   0.97149
   17  H   0.97090
   18  H   0.97108
   19  H   0.97179
   20  H   0.97817
   21  C   1.09645   0.96756   0.95264   1.00512
   22  C   1.10179   0.93737   0.98287   0.99763
   23  C   1.09566   0.98306   0.94710   1.00355
   24  C   1.10472   0.97236   0.95061   0.99853
   25  H   0.97830
   26  H   0.98134
   27  H   0.97291
   28  H   0.97261
   29  C   1.07859   0.96491   0.97160   0.97370
   30  C   1.08346   0.97062   0.96165   0.98538

 **********************
 *                    *
 * JOB ENDED NORMALLY *
 *                    *
 **********************



 TOTAL JOB TIME:             0.54 SECONDS

 == MOPAC DONE ==


          MOPAC Job: "./tetraceneTraj/tetracene_1229.mop" ended normally on Feb 15, 2023, at 11:31.

rm: cannot remove ./tetraceneTraj/tetracene_1229.cim: No such file or directory
rm: cannot remove ./tetraceneTraj/tetracene_1229.end: No such file or directory
rm: cannot remove ./tetraceneTraj/tetracene_1229.log: No such file or directory
rm: cannot remove ./tetraceneTraj/tetracene_1229.temp: No such file or directory
rm: cannot remove ./tetraceneTraj/tetracene_1229.ple: No such file or directory
rm: cannot remove ./tetraceneTraj/tetracene_1229.sts: No such file or directory
