 *******************************************************************************
 ** Site#:    0         For non-commercial use only    Version 20.173L 64BITS **
 *******************************************************************************
 ** Cite this program as: MOPAC2016, Version: 20.173L, James J. P. Stewart,   **
 ** Stewart Computational Chemistry, web-site: HTTP://OpenMOPAC.net.          **
 *******************************************************************************
 **                                                                           **
 **                                MOPAC2016                                  **
 **                                                                           **
 *******************************************************************************

                              INDO CALCULATION RESULTS

 *******************************************************************************
 *  CALCULATION DONE:                                Wed Feb 15 11:41:34 2023  *
 *  INDO       - The INDO Hamiltonian to be used
 *
 *
 *
 *                 CHARGE ON SYSTEM = 0
 *
 *
 *
 *  C.I.=(N,M) - 3 DOUBLY FILLED LEVELS USED IN A C.I. INVOLVING 6 M.O.'S
 *  T=         - A TIME OF 172800.0 SECONDS REQUESTED
 *  DUMP=N     - RESTART FILE WRITTEN EVERY 7200.0 SECONDS REQUESTED
 *  RELSCF     - DEFAULT SCF CRITERION MULTIPLIED BY 0.0000
 *              (DEFAULT SCF CRITERION = 0.00010)
 *  ALLVEC     - PRINT ALL EIGENVECTORS
 **********
 *  WARNING: Specified print options may not behave as expected with INDO
 **********
 *******************************************************************************
INDO C.I.=(6,3) AllVEC CHARGE=0 RELSCF=0.000001


   ATOM   CHEMICAL          X               Y               Z
  NUMBER   SYMBOL      (ANGSTROMS)     (ANGSTROMS)     (ANGSTROMS)
 
     1       C         18.47608339  *  19.53933743  *  22.35040364  *
     2       C         19.81789656  *  19.48502007  *  22.44854461  *
     3       C         20.65748104  *  20.69856956  *  22.46324992  *
     4       C         19.95324754  *  22.00889291  *  22.50295708  *
     5       C         18.50428836  *  22.00773392  *  22.50305527  *
     6       C         17.77920432  *  20.84134005  *  22.37019406  *
     7       C         22.06145563  *  20.63880350  *  22.41453302  *
     8       C         20.71013550  *  23.17638532  *  22.55331756  *
     9       C         22.13745554  *  23.11533050  *  22.58308909  *
    10       C         22.81890792  *  21.84692808  *  22.53240491  *
    11       C         24.27166504  *  21.78655168  *  22.57855957  *
    12       H         24.84252300  *  20.78173520  *  22.52372668  *
    13       C         22.96282649  *  24.32750160  *  22.64043574  *
    14       H         22.53931635  *  19.64090972  *  22.35599386  *
    15       H         17.88938174  *  18.59316128  *  22.35748168  *
    16       H         20.28968649  *  18.48741738  *  22.48446471  *
    17       H         17.99991750  *  23.01249621  *  22.46826894  *
    18       H         16.69463746  *  20.87174346  *  22.31798775  *
    19       H         20.17159398  *  24.13865636  *  22.63380374  *
    20       H         22.49922154  *  25.34384710  *  22.70711382  *
    21       C         26.55503579  *  23.06724769  *  22.55185306  *
    22       C         27.22590363  *  24.22811469  *  22.39713452  *
    23       C         26.51290860  *  25.50962507  *  22.43221035  *
    24       C         25.14612376  *  25.50095478  *  22.48472589  *
    25       H         27.16322015  *  22.12409895  *  22.57623815  *
    26       H         28.33019531  *  24.28154153  *  22.40794765  *
    27       H         27.02037097  *  26.48781801  *  22.31668147  *
    28       H         24.54650300  *  26.44280145  *  22.47459179  *
    29       C         25.05963299  *  22.96106645  *  22.66253131  *
    30       C         24.35087622  *  24.24327515  *  22.56235322  *
 


          CARTESIAN COORDINATES 

    NO.       ATOM           X           Y           Z

     1         C         18.4761     19.5393     22.3504
     2         C         19.8179     19.4850     22.4485
     3         C         20.6575     20.6986     22.4632
     4         C         19.9532     22.0089     22.5030
     5         C         18.5043     22.0077     22.5031
     6         C         17.7792     20.8413     22.3702
     7         C         22.0615     20.6388     22.4145
     8         C         20.7101     23.1764     22.5533
     9         C         22.1375     23.1153     22.5831
    10         C         22.8189     21.8469     22.5324
    11         C         24.2717     21.7866     22.5786
    12         H         24.8425     20.7817     22.5237
    13         C         22.9628     24.3275     22.6404
    14         H         22.5393     19.6409     22.3560
    15         H         17.8894     18.5932     22.3575
    16         H         20.2897     18.4874     22.4845
    17         H         17.9999     23.0125     22.4683
    18         H         16.6946     20.8717     22.3180
    19         H         20.1716     24.1387     22.6338
    20         H         22.4992     25.3438     22.7071
    21         C         26.5550     23.0672     22.5519
    22         C         27.2259     24.2281     22.3971
    23         C         26.5129     25.5096     22.4322
    24         C         25.1461     25.5010     22.4847
    25         H         27.1632     22.1241     22.5762
    26         H         28.3302     24.2815     22.4079
    27         H         27.0204     26.4878     22.3167
    28         H         24.5465     26.4428     22.4746
    29         C         25.0596     22.9611     22.6625
    30         C         24.3509     24.2433     22.5624

           Empirical Formula: C18 H12  =    30 atoms



      MOLECULAR POINT GROUP   :   Cs  


      RHF CALCULATION, NO. OF DOUBLY OCCUPIED LEVELS = 42

 WARNING: INDO only performs single-point calculations
  SCF CRITERION =    0.1000E-09

 Summary of symmetry occupancy in each shell:

 SHELL     
    1   42
    v   42
 TOTAL  84




    ROOT NO.    1           2           3           4           5           6

           -44.52023   -42.83041   -40.36137   -37.04829   -35.45529   -33.94199
  
  
  S  C   1   0.13782    -0.20756    -0.27315    -0.24960     0.09426     0.11044
 PX  C   1   0.03866    -0.05130    -0.05082    -0.02042     0.06303     0.08212
 PY  C   1   0.04778    -0.06820    -0.08014    -0.05528    -0.03134    -0.04928
 PZ  C   1   0.00510    -0.00749    -0.00930    -0.00737     0.00315     0.00393
  
  S  C   2   0.17147    -0.22395    -0.22837    -0.13375     0.22529     0.25314
 PX  C   2  -0.00725     0.03138     0.07842     0.10673     0.04009     0.02654
 PY  C   2   0.06606    -0.07775    -0.05977    -0.00388     0.01284     0.00434
 PZ  C   2  -0.00162     0.00295     0.00471     0.00499    -0.00266    -0.00339
  
  S  C   3   0.29728    -0.26240    -0.05999     0.15608     0.20822     0.18304
 PX  C   3   0.00323     0.05619     0.14318     0.12894     0.09050     0.04483
 PY  C   3   0.06124    -0.02265     0.06302     0.10170    -0.11483    -0.10844
 PZ  C   3   0.00069     0.00069     0.00279     0.00263    -0.00531    -0.00467
  
  S  C   4   0.30137    -0.26808    -0.06352     0.17667    -0.22120    -0.16873
 PX  C   4   0.05146     0.01335     0.13146     0.14990     0.05049     0.08670
 PY  C   4  -0.02896     0.05562     0.08114     0.06280    -0.13572    -0.09038
 PZ  C   4  -0.00060     0.00239     0.00486     0.00452    -0.00540    -0.00249
  
  S  C   5   0.17282    -0.22302    -0.21961    -0.09826    -0.22876    -0.26370
 PX  C   5   0.05507    -0.05214    -0.00989     0.05847    -0.04682    -0.02216
 PY  C   5  -0.04123     0.06713     0.09589     0.09114    -0.03112    -0.01220
 PZ  C   5  -0.00445     0.00698     0.00946     0.00818     0.00359     0.00641
  
  S  C   6   0.13587    -0.20413    -0.26689    -0.23460    -0.07996    -0.12736
 PX  C   6   0.06116    -0.08507    -0.09446    -0.05579    -0.00957    -0.01026
 PY  C   6   0.00370    -0.00151     0.00797     0.02641    -0.06949    -0.08969
 PZ  C   6   0.00408    -0.00585    -0.00688    -0.00447    -0.00386    -0.00529
  
  S  C   7   0.25212    -0.11115     0.15226     0.20489     0.34234     0.14030
 PX  C   7  -0.03984     0.06723     0.03550    -0.07606     0.00206    -0.08547
 PY  C   7   0.08552    -0.01208     0.08800     0.06207     0.00058    -0.03871
 PZ  C   7   0.00949    -0.00271     0.00828     0.00744     0.00777     0.00068
  
  S  C   8   0.25743    -0.11775     0.14724     0.23083    -0.33058    -0.11229
 PX  C   8   0.04482     0.03065     0.09157     0.00173     0.01480     0.08442
 PY  C   8  -0.08319     0.06448    -0.02059    -0.10149    -0.00183     0.03462
 PZ  C   8  -0.00139     0.00223     0.00135    -0.00229    -0.00330     0.00117
  
  S  C   9   0.33296     0.03216     0.29232    -0.00259    -0.19564     0.03820
 PX  C   9   0.01484     0.09300     0.01861    -0.19634     0.07840     0.02717
 PY  C   9  -0.06088     0.04138    -0.05045    -0.09753    -0.12459     0.04861
 PZ  C   9  -0.00434     0.00237    -0.00322    -0.00668    -0.00339     0.00060
  
  S  C  10   0.33229     0.03343     0.29660    -0.01103     0.22295    -0.04585
 PX  C  10  -0.04207     0.08454    -0.03056    -0.18761     0.04907    -0.08578
 PY  C  10   0.04623     0.05234     0.04007    -0.10033    -0.13654    -0.01392
 PZ  C  10   0.00018     0.00379     0.00064    -0.00958    -0.00664    -0.00309
  
  S  C  11   0.21346     0.15445     0.13869    -0.22604     0.25658    -0.25023
 PX  C  11  -0.05156     0.01418    -0.08750     0.01037    -0.02984    -0.06207
 PY  C  11   0.06502     0.07754     0.01550    -0.10532    -0.01624    -0.04647
 PZ  C  11  -0.00091     0.00054    -0.00058    -0.00388    -0.00360    -0.00143
  
  S  H  12   0.05837     0.04122     0.03517    -0.05388     0.12172    -0.11194
  
  S  C  13   0.22330     0.17048     0.13097    -0.24039    -0.26549     0.23059
 PX  C  13   0.02737     0.07767    -0.04043    -0.08472     0.01625     0.06404
 PY  C  13  -0.07618    -0.02843    -0.08202     0.06627    -0.00162     0.05479
 PZ  C  13  -0.00617    -0.00460    -0.00335     0.00535     0.00479    -0.00528
  
  S  H  14   0.07368    -0.03319     0.03959     0.05102     0.16798     0.06714
  
  S  H  15   0.03480    -0.05572    -0.08153    -0.08892     0.04123     0.05193
  
  S  H  16   0.05079    -0.06481    -0.06398    -0.03790     0.11359     0.12675
  
  S  H  17   0.05132    -0.06347    -0.05741    -0.01725    -0.11525    -0.12691
  
  S  H  18   0.03499    -0.05583    -0.08103    -0.08461    -0.03462    -0.05786
  
  S  H  19   0.07645    -0.03557     0.03815     0.06345    -0.16748    -0.06059
  
  S  H  20   0.06621     0.05217     0.03200    -0.06387    -0.13465     0.12568
  
  S  C  21   0.12478     0.24508    -0.22184     0.14045     0.13721    -0.29647
 PX  C  21  -0.03835    -0.05508     0.01069     0.05584    -0.01767     0.02635
 PY  C  21   0.03196     0.07641    -0.09408     0.09538    -0.01018     0.02151
 PZ  C  21  -0.00171    -0.00415     0.00577    -0.00787    -0.00077     0.00136
  
  S  C  22   0.10251     0.23078    -0.26690     0.26621     0.06808    -0.13119
 PX  C  22  -0.04522    -0.09396     0.09164    -0.05992    -0.00729     0.00532
 PY  C  22  -0.00345    -0.00370    -0.00406     0.01781    -0.03815     0.10662
 PZ  C  22   0.00531     0.01178    -0.01293     0.01104     0.00421    -0.00979
  
  S  C  23   0.10228     0.22895    -0.26175     0.25209    -0.03428     0.14108
 PX  C  23  -0.02736    -0.05313     0.04338    -0.00914     0.03852    -0.09561
 PY  C  23  -0.03729    -0.07986     0.08329    -0.06673    -0.02161     0.04936
 PZ  C  23   0.00161     0.00305    -0.00219    -0.00045    -0.00052     0.00024
  
  S  C  24   0.13330     0.25489    -0.21695     0.10653    -0.13694     0.31478
 PX  C  24   0.00273     0.03107    -0.07535     0.11818     0.04248    -0.04014
 PY  C  24  -0.05110    -0.08872     0.05744     0.00152     0.01018    -0.00619
 PZ  C  24   0.00198     0.00252     0.00063    -0.00552    -0.00260     0.00235
  
  S  H  25   0.03517     0.06817    -0.06101     0.03990     0.06591    -0.14408
  
  S  H  26   0.02607     0.06257    -0.08079     0.09662     0.02783    -0.05769
  
  S  H  27   0.02583     0.06123    -0.07739     0.08809    -0.01689     0.06731
  
  S  H  28   0.04176     0.07543    -0.05718     0.01745    -0.07641     0.16278
  
  S  C  29   0.23068     0.30665    -0.06630    -0.17316     0.13680    -0.25323
 PX  C  29  -0.05195    -0.00742    -0.11522     0.16281     0.02046    -0.05830
 PY  C  29   0.02761     0.07015    -0.07940     0.04845    -0.08193     0.11610
 PZ  C  29  -0.01201    -0.01727     0.00662     0.00450    -0.00797     0.01354
  
  S  C  30   0.24543     0.32552    -0.06861    -0.19496    -0.14153     0.20235
 PX  C  30  -0.01178     0.04846    -0.13129     0.13758     0.07355    -0.07062
 PY  C  30  -0.04885    -0.02933    -0.05883     0.09675    -0.08183     0.16798
 PZ  C  30   0.00347     0.00266     0.00441    -0.01064    -0.00196    -0.00036




    ROOT NO.    7           8           9          10          11          12

           -31.68781   -31.27179   -28.98224   -28.11613   -26.74627   -26.04963
  
  
  S  C   1  -0.21898     0.21967     0.18406    -0.24134    -0.04139     0.18673
 PX  C   1  -0.09622    -0.09802     0.10410     0.15795    -0.03939     0.04847
 PY  C   1   0.07575     0.03745    -0.10514     0.00802     0.11390    -0.07964
 PZ  C   1  -0.00678     0.00158     0.00688     0.00254    -0.00074     0.00591
  
  S  C   2  -0.26265    -0.09404     0.16732     0.13293    -0.12077    -0.02060
 PX  C   2   0.07145    -0.13813    -0.13234     0.11878    -0.01291    -0.21352
 PY  C   2   0.04324    -0.07065    -0.07655     0.09402     0.13695    -0.06406
 PZ  C   2   0.00635    -0.00426    -0.00607     0.00472     0.00260    -0.00635
  
  S  C   3  -0.00333    -0.26399    -0.12088     0.12801     0.15578    -0.15228
 PX  C   3   0.06084     0.04087    -0.12505    -0.15706    -0.08214    -0.09326
 PY  C   3   0.07279     0.01222     0.02210    -0.09762     0.16379     0.17562
 PZ  C   3   0.00113     0.00096     0.00445    -0.00090     0.00445     0.00807
  
  S  C   4   0.09739    -0.23248     0.11941     0.11306     0.05269     0.20733
 PX  C   4  -0.11051    -0.00743     0.04409    -0.17157     0.11937    -0.01728
 PY  C   4  -0.02192     0.02971     0.12275    -0.08924    -0.22427     0.04535
 PZ  C   4  -0.00377    -0.00049     0.00850    -0.00315    -0.00838     0.00352
  
  S  C   5   0.27872     0.01386    -0.14924     0.13861    -0.11017    -0.05552
 PX  C   5  -0.01400    -0.15127     0.13589     0.13393     0.00030     0.19724
 PY  C   5  -0.01253    -0.07992     0.08504     0.03700    -0.14581     0.06309
 PZ  C   5  -0.00963    -0.00882     0.01346     0.00265    -0.00353     0.01192
  
  S  C   6   0.13528     0.29374    -0.21438    -0.23767     0.06179    -0.18216
 PX  C   6   0.00315    -0.02639     0.02717     0.09637     0.04238     0.07582
 PY  C   6   0.13990    -0.04927    -0.12211     0.13127    -0.03531    -0.12418
 PZ  C   6   0.00709     0.00047    -0.00610     0.00792     0.00078    -0.00372
  
  S  C   7   0.18546     0.01355    -0.22520    -0.10439    -0.18889    -0.06447
 PX  C   7   0.08061     0.16136     0.06394    -0.01880    -0.15765     0.17302
 PY  C   7   0.04052     0.09802     0.02250    -0.09750     0.12845     0.16734
 PZ  C   7   0.00603     0.00604    -0.00168    -0.00611     0.00338     0.00851
  
  S  C   8  -0.18360    -0.02247     0.22128    -0.13223    -0.19245    -0.06547
 PX  C   8  -0.13668     0.13854    -0.06707    -0.08255     0.12770    -0.17381
 PY  C   8  -0.06241     0.06323    -0.03190     0.04396    -0.14942    -0.15975
 PZ  C   8  -0.00699     0.00385     0.00164     0.00056    -0.00863    -0.01047
  
  S  C   9  -0.25977     0.22992    -0.01148     0.00364     0.12505    -0.16325
 PX  C   9   0.06891     0.03607    -0.09203     0.19186     0.09255     0.09107
 PY  C   9  -0.11629    -0.04548    -0.05330     0.10412    -0.17305    -0.18259
 PZ  C   9  -0.00388    -0.00207    -0.00071     0.00892    -0.00673    -0.00843
  
  S  C  10   0.15965     0.27924     0.00956    -0.00028     0.02158     0.21463
 PX  C  10   0.06641    -0.00583     0.11565     0.17654    -0.12994     0.02470
 PY  C  10  -0.14772     0.02092     0.04991     0.09454     0.23730    -0.05967
 PZ  C  10  -0.00710    -0.00025     0.00799     0.01183     0.01031    -0.00522
  
  S  C  11   0.15297     0.02215     0.25360     0.11210    -0.17570    -0.04795
 PX  C  11  -0.08308    -0.16853     0.04757    -0.08374    -0.00188    -0.21147
 PY  C  11  -0.04723    -0.07598     0.03900     0.03731     0.18122    -0.06308
 PZ  C  11  -0.00467    -0.00631     0.00358     0.00279     0.00870    -0.00947
  
  S  H  12   0.07030     0.00074     0.10884     0.01085    -0.18767    -0.05495
  
  S  C  13  -0.14562    -0.00834    -0.24865     0.14779    -0.15586    -0.03053
 PX  C  13   0.13490    -0.13028    -0.05194    -0.02043     0.04526     0.22436
 PY  C  13   0.07873    -0.07820    -0.03606    -0.09352    -0.16730     0.07466
 PZ  C  13   0.00083    -0.00084     0.00354    -0.00168    -0.00217    -0.00359
  
  S  H  14   0.08665    -0.00466    -0.10109    -0.00437    -0.21409    -0.08159
  
  S  H  15  -0.11323     0.11707     0.11022    -0.17114    -0.06590     0.11954
  
  S  H  16  -0.12992    -0.04352     0.08687     0.04665    -0.14386    -0.03303
  
  S  H  17   0.12815     0.00442    -0.06011     0.05155    -0.14021    -0.04946
  
  S  H  18   0.06703     0.15877    -0.12491    -0.17354     0.00603    -0.14127
  
  S  H  19  -0.08011    -0.01734     0.10665    -0.01825    -0.22147    -0.06925
  
  S  H  20  -0.05845    -0.01319    -0.12255     0.02652    -0.18934    -0.03280
  
  S  C  21  -0.26541    -0.09194    -0.19359    -0.12691    -0.11301     0.00541
 PX  C  21  -0.06084     0.13319    -0.13509     0.15149    -0.08607     0.16710
 PY  C  21  -0.02831     0.07332    -0.06542     0.04914     0.06252     0.11215
 PZ  C  21   0.00661    -0.01119     0.01099    -0.01280     0.00245    -0.01624
  
  S  C  22  -0.20541     0.21550    -0.19039     0.24582    -0.03290     0.17098
 PX  C  22  -0.01097     0.02430    -0.03406     0.09727    -0.05370     0.05079
 PY  C  22   0.11793     0.10046     0.15542     0.12047     0.08870    -0.09077
 PZ  C  22  -0.01297     0.00013    -0.01438    -0.00441    -0.00275     0.00909
  
  S  C  23   0.13723     0.28010     0.23193     0.21691     0.07092    -0.17558
 PX  C  23  -0.11653     0.05330    -0.09593     0.15845     0.00911     0.06021
 PY  C  23   0.07147    -0.00651     0.09276     0.00336    -0.03502    -0.10573
 PZ  C  23  -0.00008    -0.00822    -0.00466    -0.01394    -0.00096     0.00574
  
  S  C  24   0.27792     0.00800     0.15642    -0.14128    -0.08480    -0.02327
 PX  C  24   0.01304     0.14478     0.15800     0.09354     0.11079    -0.17236
 PY  C  24   0.01116     0.08609     0.07506     0.09130    -0.05354    -0.10479
 PZ  C  24  -0.00105    -0.01200    -0.01144    -0.01031    -0.00288     0.01307
  
  S  H  25  -0.13034    -0.03869    -0.10173    -0.03894    -0.11917    -0.00102
  
  S  H  26  -0.10291     0.12055    -0.10948     0.18160    -0.04568     0.11460
  
  S  H  27   0.07169     0.14696     0.13632     0.15222     0.01981    -0.12891
  
  S  H  28   0.13276     0.00087     0.05855    -0.05271    -0.11309    -0.00997
  
  S  C  29  -0.03030    -0.26885     0.13266    -0.13850     0.11376    -0.18071
 PX  C  29  -0.09087    -0.03009    -0.06992    -0.16259    -0.08366    -0.06456
 PY  C  29  -0.00091    -0.04021    -0.11491    -0.08840     0.12898     0.12872
 PZ  C  29   0.00182     0.01063    -0.00621     0.00825    -0.00568     0.00636
  
  S  C  30   0.10087    -0.23562    -0.11732    -0.11305     0.04868     0.18125
 PX  C  30   0.05454    -0.03812     0.13027    -0.17925     0.08615    -0.05657
 PY  C  30   0.08438     0.02318    -0.05220    -0.08283    -0.18611     0.08992
 PZ  C  30  -0.00365    -0.00771    -0.00750     0.00464     0.00524     0.00378




    ROOT NO.   13          14          15          16          17          18

           -25.10503   -23.89733   -22.67200   -21.41551   -20.69260   -19.27312
  
  
  S  C   1  -0.00578     0.12860     0.00478     0.18103    -0.03511     0.00405
 PX  C   1   0.02877    -0.23206     0.00364    -0.06909     0.19447     0.17881
 PY  C   1  -0.14132     0.01608     0.20650    -0.09293    -0.14826     0.17293
 PZ  C   1  -0.00095    -0.01086     0.00248    -0.00140     0.01196     0.01171
  
  S  C   2   0.13334    -0.17721    -0.09539    -0.16283     0.08595     0.02026
 PX  C   2   0.06383     0.02459    -0.05639    -0.16082    -0.13379    -0.15524
 PY  C   2  -0.17102     0.01510     0.21268    -0.04463    -0.15781     0.07565
 PZ  C   2  -0.00072    -0.00059    -0.00174    -0.00936    -0.00207    -0.01119
  
  S  C   3  -0.10571     0.10596    -0.00124    -0.07453    -0.06027    -0.14802
 PX  C   3   0.14588     0.13721    -0.15961     0.12079     0.00909    -0.00319
 PY  C   3  -0.16262     0.08497    -0.00795     0.11698     0.15872    -0.07066
 PZ  C   3  -0.00533    -0.00280    -0.00055    -0.00546     0.00690    -0.00909
  
  S  C   4  -0.08926     0.09496    -0.00230     0.10304    -0.03724    -0.15476
 PX  C   4  -0.07785     0.16925    -0.07659    -0.17534     0.07041    -0.06453
 PY  C   4   0.21237     0.06958    -0.12020    -0.01496    -0.09964     0.03001
 PZ  C   4   0.00652     0.00328    -0.00219    -0.00380    -0.00676    -0.00232
  
  S  C   5   0.15492    -0.19807    -0.11371     0.09261     0.14476     0.03198
 PX  C   5  -0.08211     0.01516     0.13205     0.19100    -0.15954    -0.03678
 PY  C   5   0.15943     0.00995    -0.16323     0.09405    -0.00979    -0.15939
 PZ  C   5  -0.00052     0.00522     0.00188     0.00923    -0.00960    -0.00847
  
  S  C   6  -0.01649     0.13864    -0.00122    -0.14821    -0.07127    -0.00887
 PX  C   6  -0.09284    -0.12890     0.17056     0.11445     0.02978     0.25750
 PY  C   6   0.09796    -0.20170    -0.11574    -0.10510     0.24303     0.05383
 PZ  C   6   0.00039    -0.01715     0.00221    -0.00073     0.01796     0.01865
  
  S  C   7   0.12518     0.08912     0.06681     0.21907    -0.04495     0.14216
 PX  C   7   0.00651    -0.13688     0.18769     0.05510     0.02315     0.14575
 PY  C   7  -0.09537    -0.08086    -0.04855    -0.00773     0.21005     0.00317
 PZ  C   7  -0.00362    -0.00487    -0.00371    -0.00497     0.01289    -0.00631
  
  S  C   8   0.08982     0.10748     0.08720    -0.18676    -0.10566     0.14497
 PX  C   8  -0.09759    -0.13741     0.06808    -0.08488     0.19100     0.09326
 PY  C   8   0.05557    -0.06792     0.17774    -0.02435    -0.10704     0.13401
 PZ  C   8   0.00272    -0.00362     0.01253    -0.00548    -0.00753     0.00747
  
  S  C   9  -0.00604    -0.22128    -0.00255    -0.00864     0.00891     0.00212
 PX  C   9   0.03770    -0.06042    -0.11285     0.18313    -0.14907    -0.16963
 PY  C   9  -0.01459     0.07202     0.20799     0.11439    -0.05806    -0.07931
 PZ  C   9   0.00085     0.00302     0.00935     0.00564    -0.00867    -0.01141
  
  S  C  10   0.01446    -0.22095    -0.00455    -0.01996    -0.01356     0.00361
 PX  C  10  -0.00644     0.04433     0.12108    -0.14187    -0.18531    -0.14973
 PY  C  10   0.01600    -0.08053    -0.20390    -0.08482    -0.10424    -0.08840
 PZ  C  10  -0.00104    -0.00117    -0.01089    -0.01657    -0.01268    -0.01795
  
  S  C  11  -0.17217     0.11333     0.06973    -0.21023     0.06528    -0.15369
 PX  C  11  -0.11011     0.15003    -0.08291     0.04621     0.20904     0.06534
 PY  C  11   0.08605     0.06524    -0.16948     0.04610    -0.10763     0.12165
 PZ  C  11  -0.00213     0.01048    -0.01586    -0.00087     0.00079     0.00680
  
  S  H  12  -0.16658     0.06479     0.10369    -0.10803     0.16304    -0.12990
  
  S  C  13  -0.11623     0.09244     0.06221     0.21422     0.10650    -0.15702
 PX  C  13   0.04330     0.14521    -0.17107    -0.08487    -0.01265     0.14910
 PY  C  13  -0.12677     0.08484     0.04103    -0.04436     0.21262    -0.00659
 PZ  C  13   0.00044     0.00310     0.00704     0.00550     0.00664    -0.00478
  
  S  H  14   0.12057     0.05303     0.11431     0.12524    -0.14195     0.11498
  
  S  H  15   0.06206     0.13581    -0.11582     0.17438    -0.00228    -0.18067
  
  S  H  16   0.18490    -0.09186    -0.19065    -0.09853     0.10168    -0.08644
  
  S  H  17   0.19334    -0.09706    -0.18971     0.04076     0.11190    -0.06932
  
  S  H  18   0.05030     0.15231    -0.11601    -0.15957    -0.05572    -0.19820
  
  S  H  19   0.10911     0.05726     0.12220    -0.07577    -0.17665     0.12554
  
  S  H  20  -0.14837     0.05559     0.09938     0.09841     0.18463    -0.12708
  
  S  C  21  -0.17592    -0.19276    -0.10493     0.13315    -0.10602    -0.02553
 PX  C  21  -0.09312     0.01112    -0.13395    -0.14530    -0.20707    -0.00699
 PY  C  21   0.17701    -0.00459     0.16600    -0.11576    -0.02160    -0.16824
 PZ  C  21  -0.00296    -0.00086    -0.00104     0.02153     0.01785     0.01812
  
  S  C  22   0.04042     0.15803     0.01368    -0.16104     0.04547     0.00380
 PX  C  22  -0.09229     0.14234    -0.16262    -0.10063    -0.00557     0.26853
 PY  C  22   0.11634     0.19379     0.10043     0.03498     0.25188     0.04402
 PZ  C  22   0.00134    -0.01378     0.00487    -0.00025    -0.01108    -0.01432
  
  S  C  23   0.00870     0.11125    -0.01662     0.16790     0.05993     0.00041
 PX  C  23   0.05884     0.23792     0.00410     0.01036     0.20794     0.16952
 PY  C  23  -0.15692    -0.01053    -0.20984     0.14094    -0.12444     0.20229
 PZ  C  23   0.00280    -0.01685     0.00826    -0.00944    -0.01072    -0.01696
  
  S  C  24  -0.17310    -0.17780    -0.09478    -0.13368    -0.13040    -0.01781
 PX  C  24   0.07854    -0.04667     0.05460     0.18153    -0.09074    -0.15784
 PY  C  24  -0.18524    -0.00752    -0.20380     0.08927    -0.13549     0.07660
 PZ  C  24   0.00498     0.00151     0.00648    -0.01032     0.00840     0.00620
  
  S  H  25  -0.21615    -0.08974    -0.19236     0.07641    -0.11704     0.08630
  
  S  H  26  -0.03270     0.17910    -0.09817    -0.15217     0.02895     0.20741
  
  S  H  27  -0.06475     0.12275    -0.13096     0.17832     0.02323     0.19451
  
  S  H  28  -0.21767    -0.07623    -0.17783    -0.07734    -0.10464     0.09197
  
  S  C  29   0.07664     0.08893    -0.01207     0.09843     0.07907     0.14993
 PX  C  29  -0.09824    -0.17312     0.06913     0.15992     0.12727    -0.06853
 PY  C  29   0.26003    -0.08531     0.13036     0.03648    -0.09599     0.05847
 PZ  C  29  -0.00677     0.00367    -0.00727     0.00020     0.00027     0.00692
  
  S  C  30   0.14954     0.10606     0.01292    -0.08843     0.01986     0.15343
 PX  C  30   0.13171    -0.14600     0.15386    -0.10778    -0.01140     0.00839
 PY  C  30  -0.19288    -0.07402     0.00860    -0.14682     0.12219    -0.08543
 PZ  C  30   0.00954     0.01582    -0.00348     0.01396     0.00065     0.01506




    ROOT NO.   19          20          21          22          23          24

           -18.42984   -17.26939   -16.85042   -16.47969   -16.15289   -15.11770
  
  
  S  C   1  -0.15955    -0.01698    -0.06398    -0.10408    -0.00746     0.06427
 PX  C   1   0.10546     0.15206    -0.02250    -0.02932    -0.18406     0.18882
 PY  C   1   0.11202    -0.18902     0.04502     0.01272    -0.19638     0.07646
 PZ  C   1   0.00603     0.01188     0.00175     0.00689    -0.00582    -0.03958
  
  S  C   2   0.16769    -0.03123     0.01798     0.05312    -0.02693     0.04209
 PX  C   2   0.08461    -0.17695     0.06381     0.10070     0.16564    -0.17181
 PY  C   2  -0.03002    -0.13829    -0.16450    -0.17893     0.07590     0.28573
 PZ  C   2   0.01269    -0.00493     0.00684     0.02267     0.02308    -0.07073
  
  S  C   3  -0.03753     0.01978    -0.18681    -0.11850     0.12499     0.00585
 PX  C   3  -0.17404    -0.01762    -0.05289    -0.08712    -0.19740    -0.16018
 PY  C   3  -0.02685     0.28848     0.02901     0.06227     0.01945    -0.08039
 PZ  C   3   0.01545     0.00290    -0.00273     0.02102     0.02751    -0.07219
  
  S  C   4   0.05015     0.06372     0.16195     0.16352     0.04414    -0.01316
 PX  C   4   0.15511     0.19457    -0.03395    -0.06555    -0.07981     0.18659
 PY  C   4   0.07939    -0.17427     0.10001     0.01250    -0.21593     0.09815
 PZ  C   4   0.00948    -0.01025    -0.00114     0.01430     0.01097    -0.05941
  
  S  C   5  -0.16312     0.00352    -0.02034    -0.06074     0.02680    -0.03477
 PX  C   5  -0.05161    -0.17159     0.13078     0.17475     0.08067    -0.16505
 PY  C   5  -0.09051    -0.12507    -0.15141    -0.11459     0.17267     0.31603
 PZ  C   5  -0.00288    -0.01206    -0.00337     0.00807     0.01910    -0.03573
  
  S  C   6   0.14638    -0.01395     0.06818     0.07982    -0.07765    -0.05900
 PX  C   6  -0.17630    -0.02821     0.00844    -0.11841    -0.20180    -0.14235
 PY  C   6   0.03069     0.25473     0.00782    -0.00616    -0.04406    -0.10377
 PZ  C   6  -0.00825     0.01874     0.00090    -0.00363    -0.01051    -0.05526
  
  S  C   7  -0.09450     0.05324     0.03946     0.02834    -0.08959     0.00158
 PX  C   7   0.16096     0.06276     0.15885     0.16547     0.10115     0.14102
 PY  C   7   0.12625     0.00823    -0.30241    -0.04908     0.02797    -0.15293
 PZ  C   7   0.01395    -0.00502    -0.03518     0.00362     0.01604    -0.07333
  
  S  C   8   0.09126     0.02870    -0.02584    -0.06711    -0.06279    -0.00626
 PX  C   8  -0.16612     0.11276     0.12224    -0.00963     0.16422     0.04455
 PY  C   8  -0.05506    -0.02717    -0.28346    -0.10688     0.10869    -0.22967
 PZ  C   8  -0.00127    -0.00184    -0.02418     0.00468     0.01744    -0.06600
  
  S  C   9  -0.15851    -0.09268     0.17868    -0.00103     0.09762     0.04572
 PX  C   9   0.02441    -0.14668    -0.02458     0.03522    -0.07406    -0.03327
 PY  C   9  -0.05763     0.25537     0.02735     0.03055     0.13305     0.00561
 PZ  C   9  -0.00143     0.01101    -0.01763     0.01889     0.01174    -0.05944
  
  S  C  10   0.13957    -0.14843    -0.15695     0.05272     0.03752    -0.05105
 PX  C  10   0.06028     0.13148    -0.05272     0.00313     0.10024     0.02768
 PY  C  10  -0.11238    -0.23024     0.11612    -0.04099    -0.08594     0.03747
 PZ  C  10  -0.00651    -0.01285    -0.01120     0.00644     0.00476    -0.06106
  
  S  C  11  -0.09032     0.04530     0.01030    -0.08569    -0.03570    -0.01390
 PX  C  11  -0.19282    -0.06062     0.14159    -0.06056    -0.14681    -0.00932
 PY  C  11  -0.06858    -0.00227    -0.18824     0.19533    -0.18992    -0.06182
 PZ  C  11  -0.01316    -0.00498    -0.01768     0.01728    -0.01582    -0.04592
  
  S  H  12  -0.06926     0.00235     0.21803    -0.21945     0.06335     0.04144
  
  S  C  13   0.10257     0.04166    -0.02095     0.02569    -0.09153     0.01830
 PX  C  13   0.13698    -0.04859     0.12149    -0.24204    -0.10484     0.02838
 PY  C  13   0.11055    -0.07316    -0.21182     0.12212    -0.11364    -0.01742
 PZ  C  13   0.00822     0.01197    -0.03385     0.03243    -0.00255    -0.03666
  
  S  H  14  -0.07965     0.04539     0.32303     0.11290    -0.03366     0.17487
  
  S  H  15  -0.20064     0.05680    -0.05245    -0.04751     0.22416    -0.11781
  
  S  H  16   0.13198     0.02439     0.16898     0.20657    -0.01106    -0.27636
  
  S  H  17  -0.12404    -0.03066    -0.18624    -0.19232     0.11030     0.29883
  
  S  H  18   0.21528     0.02001     0.02716     0.14068     0.13237     0.09669
  
  S  H  19   0.06837    -0.05059    -0.28823    -0.11329    -0.02071    -0.19531
  
  S  H  20   0.08015    -0.01722    -0.23106     0.20613    -0.10316    -0.01503
  
  S  C  21   0.15440    -0.02200     0.00409    -0.05757     0.00886     0.01967
 PX  C  21  -0.05583     0.22073     0.04134    -0.19040    -0.08850    -0.10438
 PY  C  21  -0.10855     0.12167    -0.08621     0.11558    -0.18697     0.17480
 PZ  C  21   0.02016    -0.03004    -0.00216     0.01545     0.03751    -0.02375
  
  S  C  22  -0.14850    -0.00548    -0.02759     0.09599    -0.06156     0.04136
 PX  C  22  -0.13122     0.02991    -0.00688     0.13443     0.22936    -0.06321
 PY  C  22   0.01570    -0.25214     0.04277     0.01279     0.07108    -0.07417
 PZ  C  22   0.00567     0.01020    -0.00677     0.00270    -0.00731    -0.00401
  
  S  C  23   0.16009    -0.01711     0.03179    -0.12236    -0.02044    -0.03891
 PX  C  23   0.10464    -0.19416    -0.00264     0.03076     0.15931     0.07960
 PY  C  23   0.15696     0.14996    -0.02076    -0.02543     0.16902     0.04899
 PZ  C  23  -0.01429     0.01219    -0.00559     0.01009    -0.01175    -0.01653
  
  S  C  24  -0.18442    -0.00245     0.00578     0.06949     0.00055    -0.02475
 PX  C  24   0.08819     0.18801     0.01819    -0.12755    -0.16573    -0.08811
 PY  C  24  -0.02554     0.09950    -0.11135     0.22537    -0.09852     0.17677
 PZ  C  24   0.00077    -0.00337    -0.00628     0.00853     0.01527    -0.01781
  
  S  H  25   0.12289     0.00053     0.08832    -0.20554     0.10324    -0.17515
  
  S  H  26  -0.17799     0.01245    -0.01810     0.16357     0.17059    -0.03737
  
  S  H  27   0.23099     0.02360    -0.00133    -0.06834     0.18015     0.05627
  
  S  H  28  -0.14298    -0.01785    -0.09641     0.26605    -0.00618     0.16523
  
  S  C  29  -0.03173     0.00648    -0.10973     0.20950     0.00775     0.03561
 PX  C  29   0.14343    -0.24256     0.02323     0.05580     0.10598     0.08268
 PY  C  29   0.12645     0.15556     0.00206    -0.01010     0.23075     0.05027
 PZ  C  29   0.00610    -0.00038    -0.00818     0.00802     0.00752    -0.03667
  
  S  C  30   0.05605     0.05060     0.10190    -0.17477     0.13063    -0.04000
 PX  C  30  -0.14672     0.02204    -0.06406     0.14070     0.20623    -0.06026
 PY  C  30  -0.06143    -0.25257     0.08228    -0.09802     0.01090    -0.07864
 PZ  C  30   0.02255     0.02496    -0.02029     0.01663     0.00150    -0.02341




    ROOT NO.   25          26          27          28          29          30

           -14.83151   -14.74201   -14.69550   -14.52532   -13.83082   -13.41019
  
  
  S  C   1   0.03800     0.00688    -0.02866     0.00469    -0.04910    -0.00944
 PX  C   1  -0.23707     0.00937    -0.09863     0.09060    -0.06106    -0.03898
 PY  C   1  -0.01949    -0.23452     0.05620    -0.08025    -0.10246    -0.06184
 PZ  C   1   0.03029    -0.03654    -0.00490     0.12627     0.05649    -0.22889
  
  S  C   2  -0.05115    -0.09145     0.01765    -0.01780     0.03266    -0.00629
 PX  C   2   0.19115    -0.05355     0.11254    -0.11853     0.08964     0.07431
 PY  C   2   0.00159    -0.03328    -0.10737     0.04601     0.08273     0.00855
 PZ  C   2   0.06024    -0.05931     0.00786     0.14302     0.08027    -0.23370
  
  S  C   3  -0.00238     0.06335     0.00315     0.02959    -0.02200    -0.00127
 PX  C   3   0.01326    -0.00665     0.09031    -0.01428    -0.24733    -0.07419
 PY  C   3  -0.10621     0.13316    -0.02282     0.05351    -0.01149    -0.00240
 PZ  C   3   0.07737    -0.10275    -0.01368     0.24618     0.09438    -0.26996
  
  S  C   4  -0.03848     0.01837    -0.02936     0.00006    -0.00784    -0.00396
 PX  C   4  -0.01471     0.08741    -0.12127     0.07868    -0.16961    -0.06382
 PY  C   4   0.04988    -0.12271    -0.00535    -0.04642    -0.20364    -0.05853
 PZ  C   4   0.07780    -0.10574    -0.02305     0.25443     0.08171    -0.28299
  
  S  C   5   0.09993    -0.00983     0.01626    -0.02135     0.01618    -0.00263
 PX  C   5  -0.03847    -0.09940     0.10226    -0.08066     0.15721     0.06013
 PY  C   5  -0.05167    -0.21209    -0.05412    -0.04858     0.10053    -0.00533
 PZ  C   5   0.04477    -0.06729    -0.00903     0.15388     0.07809    -0.24108
  
  S  C   6  -0.02830    -0.01160     0.03047    -0.00924    -0.05251    -0.00977
 PX  C   6   0.22025     0.04306     0.05961    -0.04812    -0.20468    -0.01955
 PY  C   6  -0.01277     0.26000    -0.05176     0.09471    -0.04685     0.03766
 PZ  C   6   0.05439    -0.01446    -0.00550     0.12716     0.04075    -0.22421
  
  S  C   7  -0.07836    -0.00320    -0.01741     0.01139     0.03925    -0.00573
 PX  C   7  -0.05853    -0.04180    -0.08187     0.01814     0.27164     0.05569
 PY  C   7  -0.15858    -0.16931     0.21379    -0.07873     0.06341     0.01803
 PZ  C   7   0.06594    -0.11512    -0.00487     0.22407     0.03739    -0.13555
  
  S  C   8   0.04532     0.06752    -0.00687     0.01388     0.00489     0.01813
 PX  C   8   0.22713    -0.05432    -0.03629    -0.10064     0.20109     0.06493
 PY  C   8  -0.13560     0.13017     0.11546     0.03877     0.17707     0.08196
 PZ  C   8   0.06624    -0.09248    -0.02647     0.24175     0.05294    -0.13987
  
  S  C   9   0.00609    -0.01316     0.01850     0.01470     0.01225     0.00418
 PX  C   9  -0.26630     0.05375     0.05468     0.10404    -0.19228    -0.06526
 PY  C   9  -0.16302     0.01572     0.04059     0.02281    -0.08091    -0.05755
 PZ  C   9   0.08214    -0.13256    -0.05365     0.29282    -0.01803    -0.00487
  
  S  C  10   0.00921     0.00801    -0.02233    -0.02200     0.00519     0.01052
 PX  C  10   0.16927     0.19739    -0.15976    -0.01082    -0.20276    -0.04428
 PY  C  10   0.10168     0.11729    -0.07151     0.01810    -0.11952    -0.00569
 PZ  C  10   0.10972    -0.11535    -0.06149     0.29198    -0.02638     0.00059
  
  S  C  11   0.07404     0.00281     0.01812    -0.02082    -0.04012    -0.00919
 PX  C  11  -0.15564    -0.16988     0.15311    -0.00125     0.19854     0.02991
 PY  C  11   0.03721     0.08719    -0.27945    -0.07964     0.21701    -0.00569
 PZ  C  11   0.06144    -0.09978    -0.06054     0.20771    -0.01544     0.15379
  
  S  H  12  -0.06672    -0.13110     0.28811     0.04830    -0.10932     0.00594
  
  S  C  13  -0.04767    -0.06104     0.00360     0.00285    -0.03753    -0.00940
 PX  C  13   0.04795     0.08450     0.11393     0.09303     0.21731     0.11542
 PY  C  13   0.27199    -0.08974    -0.15745    -0.17181     0.04866     0.01546
 PZ  C  13   0.08342    -0.13058    -0.05723     0.19309    -0.05203     0.15498
  
  S  H  14   0.06431     0.11548    -0.19952     0.06296     0.07447     0.01385
  
  S  H  15   0.15004     0.18238    -0.01028     0.02079     0.09133     0.06737
  
  S  H  16   0.05469    -0.03757     0.13629    -0.08809    -0.00718     0.01515
  
  S  H  17   0.01560    -0.13120    -0.07411    -0.01720     0.02812    -0.02455
  
  S  H  18  -0.21764    -0.03711    -0.03954     0.03631     0.16556     0.02659
  
  S  H  19  -0.17188     0.14247     0.09620     0.09153     0.06131     0.03628
  
  S  H  20   0.17996    -0.12651    -0.16496    -0.15522    -0.06732    -0.02724
  
  S  C  21   0.05729     0.08869     0.00910     0.02917    -0.00981     0.00316
 PX  C  21   0.07913    -0.12027    -0.09359    -0.09384     0.13758     0.03175
 PY  C  21   0.17567    -0.00686     0.31963     0.03246     0.06767     0.03469
 PZ  C  21   0.00488    -0.05261    -0.05489     0.13695    -0.09134     0.25638
  
  S  C  22  -0.02607     0.01126     0.05874     0.02093     0.04120    -0.00421
 PX  C  22  -0.17181    -0.19098    -0.08619    -0.05464    -0.19344    -0.02668
 PY  C  22  -0.15888     0.13169    -0.20773     0.07830    -0.02144     0.02671
 PZ  C  22   0.03580    -0.04994    -0.00933     0.10411    -0.05572     0.25012
  
  S  C  23   0.03749     0.00523    -0.05644    -0.01332     0.04325     0.02500
 PX  C  23   0.14566     0.23732     0.09031     0.07577    -0.02231    -0.01245
 PY  C  23   0.16643    -0.10682     0.15733    -0.08385    -0.10266    -0.04530
 PZ  C  23   0.00744    -0.07303    -0.03051     0.09782    -0.05722     0.24833
  
  S  C  24  -0.10737     0.00076    -0.05084     0.02014    -0.02485    -0.01110
 PX  C  24  -0.08594    -0.23846    -0.09712    -0.07675     0.04770     0.05069
 PY  C  24   0.01296     0.07412     0.22671     0.11654     0.05826     0.06715
 PZ  C  24   0.03977    -0.07443    -0.03031     0.12221    -0.06910     0.25428
  
  S  H  25  -0.07197    -0.01560    -0.28581    -0.05365     0.00034    -0.00574
  
  S  H  26  -0.17385    -0.16430    -0.05386    -0.03742    -0.16736    -0.02830
  
  S  H  27   0.21688     0.02686     0.14218    -0.05027    -0.06840    -0.05512
  
  S  H  28   0.00707     0.17130     0.18929     0.13076     0.00707     0.01932
  
  S  C  29  -0.00283    -0.04591    -0.00482     0.00279     0.02074     0.02969
 PX  C  29  -0.05992     0.14740     0.09053     0.11939    -0.16163    -0.00645
 PY  C  29   0.05276    -0.08606     0.13146    -0.01030    -0.21748    -0.01940
 PZ  C  29   0.05441    -0.11173    -0.05520     0.21580    -0.06854     0.30020
  
  S  C  30   0.01727    -0.04218     0.03561    -0.03540     0.01642    -0.01159
 PX  C  30   0.02194    -0.09393    -0.12128    -0.10130    -0.20562    -0.09219
 PY  C  30  -0.02245     0.11274    -0.13241     0.03186     0.00447    -0.00639
 PZ  C  30   0.07641    -0.13705    -0.03305     0.21245    -0.06910     0.31029




    ROOT NO.   31          32          33          34          35          36

           -13.11870   -12.97420   -12.00221   -11.84578   -11.75272   -11.46344
  
  
  S  C   1  -0.01455     0.00254     0.00760    -0.00982     0.00186     0.01082
 PX  C   1   0.21447     0.15392    -0.09670     0.03373     0.06995     0.13137
 PY  C   1  -0.15637     0.20568     0.19929     0.01653    -0.07722     0.06909
 PZ  C   1  -0.02120    -0.04576    -0.01686     0.32495    -0.04949    -0.01339
  
  S  C   2  -0.01770     0.01078    -0.03312     0.00409     0.01864    -0.04137
 PX  C   2  -0.19976    -0.16291     0.04884    -0.07035    -0.04277    -0.16259
 PY  C   2   0.07189    -0.18449    -0.22709    -0.00883     0.09502    -0.13450
 PZ  C   2  -0.05162    -0.05382     0.01013     0.24343    -0.04435    -0.03285
  
  S  C   3  -0.01031    -0.02578     0.00885     0.00249    -0.00151     0.01498
 PX  C   3   0.04719     0.20356    -0.11421     0.06256     0.12173     0.18942
 PY  C   3   0.01034     0.14188     0.30428     0.00575    -0.16819     0.13562
 PZ  C   3  -0.03217    -0.02916     0.01138     0.05431     0.00197    -0.01006
  
  S  C   4   0.02873     0.03411     0.00522    -0.00080     0.00260    -0.01689
 PX  C   4  -0.14332    -0.11369     0.18654    -0.04267    -0.13331    -0.18489
 PY  C   4  -0.03589    -0.05393    -0.26480    -0.00054     0.16080    -0.15988
 PZ  C   4  -0.00146    -0.02531    -0.02293     0.06244    -0.00865     0.03576
  
  S  C   5  -0.03382    -0.00693    -0.03254     0.01610     0.02713     0.02984
 PX  C   5   0.15491     0.14631    -0.15838     0.03668     0.11659     0.17540
 PY  C   5  -0.08472     0.15555     0.16525     0.01051    -0.06455     0.08254
 PZ  C   5  -0.00862    -0.02972    -0.02523     0.24261    -0.03821     0.03444
  
  S  C   6  -0.01073     0.02250     0.01497    -0.00743    -0.00647    -0.01290
 PX  C   6  -0.21758    -0.09517     0.11501    -0.05889    -0.06485    -0.11451
 PY  C   6   0.14274    -0.19162    -0.18670    -0.04550     0.07400    -0.09785
 PZ  C   6  -0.02445    -0.07414    -0.03323     0.30978    -0.05024    -0.01484
  
  S  C   7   0.02560     0.06170    -0.02007     0.01600     0.03653    -0.02763
 PX  C   7  -0.05837    -0.14928     0.10097    -0.05956    -0.09563    -0.21180
 PY  C   7  -0.14858     0.05805    -0.11645     0.00239     0.11281    -0.15375
 PZ  C   7  -0.02097     0.02608    -0.00250    -0.14783     0.07462    -0.01314
  
  S  C   8  -0.04703    -0.05859    -0.02854     0.00051     0.04430     0.00889
 PX  C   8  -0.09456     0.10773    -0.04804     0.03587     0.12437     0.21780
 PY  C   8   0.12949     0.02304     0.15056     0.01271    -0.12121     0.14416
 PZ  C   8   0.03026     0.01915     0.01021    -0.14253    -0.00341     0.05942
  
  S  C   9   0.05207     0.04038    -0.00531     0.00453     0.00594    -0.00593
 PX  C   9   0.13123    -0.05829     0.07626    -0.02370    -0.14920    -0.22216
 PY  C   9  -0.21585     0.18726    -0.02517     0.02903     0.19893    -0.18445
 PZ  C   9   0.03625     0.06934     0.01339    -0.32293     0.03299     0.01943
  
  S  C  10   0.01007    -0.06086     0.00377    -0.01107     0.00522    -0.00446
 PX  C  10  -0.12262     0.10144     0.01249     0.06077     0.15990     0.19754
 PY  C  10   0.25247    -0.09850     0.06751     0.02841    -0.19821     0.17227
 PZ  C  10   0.03886     0.06959     0.03266    -0.32084     0.08243     0.02497
  
  S  C  11   0.02501     0.06776     0.00608     0.02763     0.05048     0.02279
 PX  C  11   0.13735    -0.05175     0.00232    -0.02745    -0.13165    -0.19692
 PY  C  11  -0.02722     0.10707     0.10287     0.03981     0.15895    -0.13312
 PZ  C  11   0.02113     0.06989     0.03929    -0.13967     0.07908    -0.05175
  
  S  H  12   0.09987    -0.08762    -0.09266    -0.03264    -0.21247     0.04331
  
  S  C  13  -0.05163    -0.06090     0.00562    -0.01054     0.04664    -0.02533
 PX  C  13  -0.10623    -0.12583     0.04971     0.00008     0.11999     0.22660
 PY  C  13   0.15033    -0.11285    -0.04473     0.00570    -0.14300     0.16919
 PZ  C  13   0.04292     0.03719    -0.01528    -0.14570    -0.04633     0.00770
  
  S  H  14   0.11559    -0.08652     0.15000    -0.01609    -0.15239     0.03661
  
  S  H  15   0.01206    -0.25457    -0.11681    -0.03825     0.02876    -0.13150
  
  S  H  16  -0.15476     0.09079     0.22301    -0.01481    -0.10855     0.03116
  
  S  H  17  -0.15509     0.06502     0.22128    -0.00608    -0.11177     0.00894
  
  S  H  18   0.21316     0.10202    -0.11257     0.03999     0.06691     0.11214
  
  S  H  19   0.13036    -0.05878     0.15532    -0.01674    -0.16678     0.03728
  
  S  H  20   0.14894    -0.07237    -0.06534    -0.01017    -0.18797     0.05120
  
  S  C  21  -0.01705     0.02867     0.01888     0.01180     0.04042     0.02752
 PX  C  21   0.06574     0.18447    -0.11504     0.01374    -0.17672    -0.15871
 PY  C  21   0.16746    -0.01017     0.13643     0.05079     0.12223    -0.07601
 PZ  C  21  -0.03775     0.00295     0.01432     0.24993     0.01198    -0.02733
  
  S  C  22  -0.01861    -0.01360    -0.00310    -0.02730     0.00131    -0.00123
 PX  C  22   0.01607    -0.23300     0.09495     0.01586     0.11207     0.09906
 PY  C  22  -0.23083     0.04443    -0.15834    -0.01399    -0.13383     0.07563
 PZ  C  22  -0.00412     0.01650     0.01961     0.33197    -0.00705    -0.06245
  
  S  C  23  -0.00834     0.02141    -0.01795     0.01681    -0.01973     0.00875
 PX  C  23   0.03482     0.27782    -0.07254     0.02676    -0.10369    -0.14704
 PY  C  23   0.24970    -0.02929     0.16466     0.03905     0.13757    -0.06984
 PZ  C  23  -0.01546    -0.01610     0.00952     0.31513    -0.02735    -0.03535
  
  S  C  24  -0.02695     0.00504     0.02258     0.00003     0.03102    -0.04286
 PX  C  24  -0.04982    -0.26754     0.03407    -0.00268     0.06072     0.17189
 PY  C  24  -0.20592    -0.04947    -0.17684    -0.02941    -0.15138     0.15061
 PZ  C  24   0.01428     0.02018     0.00647     0.23323    -0.03868    -0.04813
  
  S  H  25  -0.10950     0.11699    -0.17669    -0.02588    -0.19571    -0.00704
  
  S  H  26   0.00157    -0.23593     0.09199     0.00310     0.11275     0.10681
  
  S  H  27   0.22990     0.11721     0.10280     0.02513     0.06546    -0.13065
  
  S  H  28  -0.15172     0.09721    -0.16689    -0.02709    -0.16439     0.02188
  
  S  C  29  -0.01347    -0.04231     0.01091    -0.00227     0.01683    -0.02119
 PX  C  29  -0.05780    -0.16050     0.12960     0.01504     0.19933     0.16161
 PY  C  29  -0.02549    -0.04346    -0.18963    -0.03558    -0.23590     0.14913
 PZ  C  29   0.00004     0.04892     0.02040     0.05134     0.02924    -0.05066
  
  S  C  30   0.02699     0.02352    -0.01347    -0.00490    -0.01053     0.01193
 PX  C  30   0.17591     0.15214    -0.05499    -0.00382    -0.15843    -0.20076
 PY  C  30   0.11688     0.08629     0.22145     0.05067     0.24958    -0.14786
 PZ  C  30   0.00593     0.02291    -0.02044     0.03864    -0.05105    -0.00223




    ROOT NO.   37          38          39          40          41          42

           -10.55698   -10.00809    -9.67188    -8.35781    -8.13469    -6.89758
  
  
  S  C   1   0.00261     0.01706    -0.00156     0.01293    -0.01405     0.01090
 PX  C   1  -0.01145     0.01717     0.00674     0.01191    -0.01765     0.01154
 PY  C   1   0.00292    -0.00182    -0.00553     0.00665     0.00050     0.00441
 PZ  C   1  -0.15975    -0.34577     0.12646    -0.26821     0.21440    -0.18245
  
  S  C   2   0.00092    -0.00748     0.00176    -0.00935     0.00593    -0.00779
 PX  C   2   0.03967     0.01088    -0.03390     0.02264     0.01343     0.01133
 PY  C   2  -0.00307    -0.00389     0.00701    -0.01126     0.00393    -0.00688
 PZ  C   2  -0.25928    -0.16894     0.28687    -0.32970    -0.05643    -0.21509
  
  S  C   3  -0.00230    -0.00002     0.00427     0.00111    -0.00788     0.00316
 PX  C   3  -0.01485     0.00319     0.02052    -0.00493    -0.02237     0.00216
 PY  C   3  -0.00709    -0.00226    -0.00705     0.00913     0.00514     0.00378
 PZ  C   3  -0.23024     0.22854     0.24383     0.04232    -0.36738     0.14323
  
  S  C   4  -0.00094     0.00040     0.00036     0.00223     0.00306     0.00047
 PX  C   4   0.01263     0.00474    -0.01185     0.01013     0.00109     0.00177
 PY  C   4   0.00558    -0.00833     0.00797    -0.01130     0.00907    -0.00457
 PZ  C   4   0.27003     0.26250    -0.16561     0.07826    -0.33552    -0.14921
  
  S  C   5   0.01720    -0.00261    -0.02074     0.02071     0.00277     0.01472
 PX  C   5  -0.01992    -0.00335     0.01944    -0.01827    -0.00052    -0.00820
 PY  C   5  -0.01544    -0.00476     0.01416    -0.01523     0.00120    -0.00935
 PZ  C   5   0.23792    -0.07938    -0.33347     0.33941     0.07007     0.22080
  
  S  C   6   0.00034     0.00641     0.00429    -0.00580    -0.00666    -0.00755
 PX  C   6   0.00560     0.02507     0.01056    -0.01279    -0.02160    -0.01623
 PY  C   6  -0.00520     0.03069     0.01954    -0.01514    -0.02744    -0.01571
 PZ  C   6   0.09524    -0.29247    -0.22655     0.19219     0.30409     0.19918
  
  S  C   7   0.01258    -0.00652     0.00012    -0.01282    -0.00025    -0.01246
 PX  C   7   0.00617     0.00763    -0.00848     0.00766     0.01332     0.00853
 PY  C   7   0.05497    -0.01914    -0.02073    -0.02170     0.00714    -0.02813
 PZ  C   7  -0.34072     0.20945     0.20142     0.22833     0.00549     0.35942
  
  S  C   8  -0.00481    -0.00677     0.00538     0.00281     0.00124     0.00937
 PX  C   8  -0.00331    -0.00644     0.00661    -0.00391     0.00349     0.00375
 PY  C   8  -0.03887    -0.01424     0.00723     0.01758     0.00414     0.02720
 PZ  C   8   0.36570     0.21363    -0.11902    -0.23423    -0.04305    -0.36466
  
  S  C   9   0.00348    -0.00551     0.00538    -0.00245    -0.00278     0.00045
 PX  C   9  -0.00736     0.00306    -0.00554     0.01533    -0.01063     0.00217
 PY  C   9   0.02989    -0.01203     0.00711     0.01288    -0.01832    -0.00012
 PZ  C   9   0.24548    -0.00483     0.03945    -0.29073     0.34075    -0.00101
  
  S  C  10   0.00012    -0.00211    -0.00216     0.00728     0.00668    -0.00057
 PX  C  10   0.01906    -0.01618     0.01464    -0.00790    -0.02693    -0.00728
 PY  C  10  -0.02173     0.00341     0.00031    -0.00824    -0.03496    -0.00384
 PZ  C  10  -0.25841     0.03750    -0.01572     0.15194     0.40523     0.00920
  
  S  C  11   0.00653     0.00004     0.00447    -0.00628    -0.00439     0.00458
 PX  C  11   0.00779     0.01921     0.00256    -0.00806     0.01113     0.02087
 PY  C  11   0.05247     0.01121     0.03488    -0.01742     0.00203     0.03712
 PZ  C  11  -0.30430    -0.15799    -0.27865     0.21326     0.03389    -0.37580
  
  S  H  12  -0.03045     0.01067    -0.01571    -0.00096     0.00346    -0.00400
  
  S  C  13   0.01225    -0.00761     0.00351    -0.00326    -0.00086     0.00795
 PX  C  13   0.01526    -0.02274     0.01710    -0.01262     0.00211     0.01772
 PY  C  13  -0.05244     0.03255    -0.02206     0.00991     0.00922    -0.02569
 PZ  C  13   0.27680    -0.27671     0.19902    -0.20970    -0.04646     0.38246
  
  S  H  14  -0.02625     0.00866     0.00238     0.00864    -0.00032     0.00872
  
  S  H  15   0.00484    -0.00174     0.00050    -0.00970     0.00672    -0.00903
  
  S  H  16   0.01172    -0.00017    -0.01292     0.00806     0.00468     0.00315
  
  S  H  17  -0.00623    -0.00379     0.00516    -0.00846     0.00190    -0.00716
  
  S  H  18  -0.01272    -0.00934     0.00461    -0.00125     0.00585     0.00319
  
  S  H  19  -0.01132     0.00427    -0.00515     0.00270    -0.00065    -0.00069
  
  S  H  20  -0.03722     0.02343    -0.01613     0.00246     0.00461    -0.00879
  
  S  C  21   0.00526     0.00233     0.00339    -0.00820     0.00537     0.00910
 PX  C  21  -0.02944     0.02850    -0.04516    -0.02671    -0.01236     0.01364
 PY  C  21  -0.00395     0.01573    -0.03256    -0.03588    -0.00755     0.02370
 PZ  C  21  -0.15576     0.20423    -0.32317    -0.33461    -0.04736     0.22003
  
  S  C  22   0.00446    -0.02957     0.00670     0.01738    -0.01687    -0.01237
 PX  C  22   0.00099     0.01347     0.00009    -0.01088     0.01255     0.00772
 PY  C  22  -0.01340     0.02198    -0.00404    -0.00958     0.01335     0.00787
 PZ  C  22  -0.06287     0.37704    -0.13207    -0.26211     0.18164     0.19027
  
  S  C  23   0.00154     0.01795     0.01085     0.00938     0.01448    -0.01118
 PX  C  23   0.01241     0.02461     0.02054     0.01327     0.01686    -0.00975
 PY  C  23   0.01721     0.00182     0.01356     0.00879     0.00481    -0.00821
 PZ  C  23   0.10760     0.28613     0.26698     0.20718     0.25573    -0.20427
  
  S  C  24   0.01187    -0.01057     0.00395    -0.00419    -0.01023     0.01082
 PX  C  24  -0.00717     0.00124     0.00621     0.01175     0.00595    -0.01287
 PY  C  24  -0.02172     0.01669     0.00340     0.01431     0.01698    -0.01722
 PZ  C  24   0.18507     0.04508     0.37762     0.34102     0.05532    -0.22255
  
  S  H  25  -0.01675     0.01082    -0.00331     0.00673     0.00354    -0.00689
  
  S  H  26   0.00246     0.00352     0.00252    -0.00754     0.00965     0.00682
  
  S  H  27   0.01086    -0.00711    -0.00254    -0.00623    -0.00948     0.00830
  
  S  H  28  -0.01556     0.01187    -0.00450     0.00165     0.00860    -0.00371
  
  S  C  29  -0.02214    -0.02025    -0.03351     0.00761    -0.03105    -0.01954
 PX  C  29   0.01481    -0.02036     0.01158     0.00075    -0.00275    -0.00392
 PY  C  29  -0.04625     0.00954    -0.01977     0.00838     0.00072    -0.01695
 PZ  C  29  -0.19529    -0.22766    -0.30818     0.03319    -0.32544    -0.16719
  
  S  C  30  -0.00828     0.01758    -0.00572    -0.00283     0.02314    -0.00856
 PX  C  30  -0.00192    -0.00158     0.00082     0.00672    -0.01349     0.00619
 PY  C  30   0.05597    -0.04910     0.02754     0.00011    -0.03893     0.01952
 PZ  C  30   0.17098    -0.33499     0.18465     0.07202    -0.31584     0.16038




    ROOT NO.   43          44          45          46          47          48

            -0.88455     0.23331     0.34399     1.26550     1.44488     1.76976
  
  
  S  C   1   0.00788    -0.02064     0.01421     0.00208     0.03025     0.00817
 PX  C   1   0.00619    -0.01170     0.00841     0.00034     0.01132     0.00171
 PY  C   1  -0.00089    -0.00291     0.00038     0.00033     0.00311     0.00207
 PZ  C   1  -0.18106     0.20353    -0.26941     0.00097    -0.37480    -0.12308
  
  S  C   2   0.00413     0.00912     0.00547     0.00029     0.00188     0.00386
 PX  C   2  -0.01117    -0.00303    -0.01455     0.01493    -0.00560    -0.01014
 PY  C   2   0.00381     0.00428     0.00582    -0.00081     0.00599     0.00536
 PZ  C   2   0.22112     0.05576     0.32193    -0.21590     0.26475     0.24465
  
  S  C   3  -0.00159    -0.01016    -0.00219    -0.00945    -0.00757    -0.00364
 PX  C   3  -0.00014    -0.01372    -0.00080     0.00075     0.00248    -0.00420
 PY  C   3  -0.00186     0.01014     0.00060    -0.01062    -0.00584     0.00696
 PZ  C   3   0.14011    -0.36103     0.05971     0.31390     0.13122    -0.24450
  
  S  C   4  -0.01482    -0.00417    -0.01361     0.01429     0.00867    -0.00463
 PX  C   4   0.00154     0.00536     0.00853    -0.01199     0.00531     0.01431
 PY  C   4  -0.00818    -0.01286     0.00403    -0.00452     0.01721     0.01158
 PZ  C   4   0.16262     0.32562    -0.09959     0.07321    -0.32718    -0.26555
  
  S  C   5   0.01993     0.00139     0.03168    -0.03182     0.00976     0.03049
 PX  C   5  -0.00666    -0.00315    -0.01315     0.01362    -0.00726    -0.01366
 PY  C   5  -0.00918    -0.00017    -0.01311     0.00911    -0.00586    -0.00835
 PZ  C   5   0.22172     0.08383     0.32764    -0.33299     0.03573     0.25899
  
  S  C   6  -0.00317     0.01114    -0.01162     0.00497    -0.02104    -0.01520
 PX  C   6   0.00873     0.02051     0.00354    -0.01349    -0.01756     0.00218
 PY  C   6   0.01338     0.01398     0.01009    -0.01134    -0.00417     0.00398
 PZ  C   6  -0.21672    -0.30170    -0.18122     0.30864     0.20688    -0.13276
  
  S  C   7   0.01808     0.00456     0.01293     0.02394     0.01224    -0.00505
 PX  C   7  -0.00403    -0.00004    -0.00184     0.00276    -0.00038     0.00597
 PY  C   7   0.02840     0.00209     0.01721     0.02422     0.00937    -0.01958
 PZ  C   7  -0.36483    -0.01293    -0.22760    -0.24379    -0.11068     0.35081
  
  S  C   8   0.01838     0.00310     0.01083    -0.00579    -0.02046    -0.01080
 PX  C   8   0.00406    -0.00262    -0.00299     0.00358    -0.00597    -0.00206
 PY  C   8   0.02009    -0.00009     0.01160     0.00737    -0.01511    -0.02447
 PZ  C   8  -0.36177    -0.04272    -0.23526    -0.05219     0.25465     0.33263
  
  S  C   9  -0.01022    -0.00399    -0.00052     0.00550     0.01583     0.00484
 PX  C   9   0.00019     0.00982     0.00090     0.00063    -0.00002     0.00216
 PY  C   9  -0.00317     0.01790    -0.01406    -0.00303     0.00121     0.00537
 PZ  C   9  -0.00686    -0.32567     0.32826    -0.02122     0.00075    -0.21962
  
  S  C  10  -0.00673     0.00245    -0.00485    -0.02592    -0.01360    -0.01727
 PX  C  10   0.00267    -0.02304    -0.00374    -0.01010    -0.00060    -0.00354
 PY  C  10   0.00404    -0.02886    -0.00538     0.00408    -0.00089     0.01475
 PZ  C  10   0.02355     0.41123     0.14703    -0.01872     0.02106    -0.27959
  
  S  C  11   0.00832     0.01752    -0.00103     0.04685     0.02033     0.03518
 PX  C  11  -0.01189     0.01557     0.00520     0.00304     0.00010     0.00091
 PY  C  11  -0.02012     0.01895     0.01359     0.00293     0.00045    -0.00338
 PZ  C  11   0.37549    -0.04281    -0.23260     0.30277     0.08635     0.29838
  
  S  H  12  -0.00231    -0.00961     0.00462    -0.02099    -0.01419    -0.01837
  
  S  C  13   0.00868     0.00758    -0.00699    -0.00982    -0.00338    -0.00957
 PX  C  13   0.01261    -0.00192    -0.00967    -0.00116    -0.00358     0.00159
 PY  C  13  -0.02073    -0.00097     0.01266    -0.00382     0.01699    -0.01444
 PZ  C  13   0.37120    -0.07017    -0.22123     0.10471    -0.29955     0.28398
  
  S  H  14  -0.00660    -0.00038    -0.00524    -0.01092    -0.00467     0.00777
  
  S  H  15  -0.00370     0.01579    -0.00775    -0.00356    -0.02021    -0.00324
  
  S  H  16  -0.00218    -0.00006    -0.00306    -0.00100    -0.00290    -0.00110
  
  S  H  17  -0.01046     0.00174    -0.01980     0.02055    -0.00970    -0.02138
  
  S  H  18   0.00018    -0.00523     0.00446    -0.00252     0.00977     0.00814
  
  S  H  19  -0.00705    -0.00104    -0.00576     0.00282     0.01289     0.01214
  
  S  H  20  -0.00124    -0.00604     0.00376     0.00869    -0.00193     0.01071
  
  S  C  21   0.01607     0.01972    -0.01084     0.03995     0.02374     0.03177
 PX  C  21  -0.03117    -0.00567     0.02766    -0.01067    -0.02211    -0.01111
 PY  C  21  -0.01525     0.00798     0.01995     0.01725    -0.01212     0.00993
 PZ  C  21  -0.20950     0.08796     0.32083     0.28017    -0.27144     0.19263
  
  S  C  22  -0.02634    -0.01487     0.03444    -0.00244    -0.04954     0.00176
 PX  C  22   0.01295     0.00556    -0.01367     0.00004     0.01426    -0.00080
 PY  C  22   0.01242     0.01579    -0.01216     0.01575     0.02417     0.00699
 PZ  C  22   0.20416     0.14055    -0.28003    -0.05864     0.38427    -0.11060
  
  S  C  23   0.01244    -0.01654    -0.01725    -0.02493     0.00363    -0.01103
 PX  C  23   0.01737    -0.01713    -0.01860    -0.02614    -0.00852    -0.00927
 PY  C  23   0.00250    -0.01654     0.00127    -0.01425    -0.02431    -0.00196
 PZ  C  23   0.18119    -0.28825    -0.16138    -0.31835    -0.22565    -0.08175
  
  S  C  24  -0.00410     0.00736    -0.00002    -0.00728     0.00047    -0.00973
 PX  C  24  -0.01067     0.00721     0.01749     0.02736     0.00018     0.01520
 PY  C  24  -0.00320     0.00198     0.01235     0.02390    -0.00263     0.01593
 PZ  C  24  -0.21835     0.11455     0.31529     0.37596    -0.02719     0.18204
  
  S  H  25  -0.00219    -0.00504     0.00181    -0.01324    -0.00674    -0.01244
  
  S  H  26   0.01813     0.01310    -0.02213     0.00729     0.03544     0.00157
  
  S  H  27  -0.00733     0.01200     0.00949     0.01629     0.00189     0.00634
  
  S  H  28   0.00634    -0.00032    -0.00287     0.00816     0.00237     0.00848
  
  S  C  29  -0.03336    -0.04215     0.01088    -0.08630    -0.02232    -0.06653
 PX  C  29   0.00402    -0.01055     0.00175    -0.00142    -0.00998     0.00205
 PY  C  29  -0.00016    -0.00013    -0.00109    -0.00423     0.01043    -0.00836
 PZ  C  29  -0.18540    -0.32474     0.07452    -0.34524    -0.14477    -0.17882
  
  S  C  30   0.01453    -0.00834     0.00369     0.03835    -0.01285     0.04049
 PX  C  30   0.00254     0.01737    -0.00864     0.00681     0.01300     0.00426
 PY  C  30  -0.01599     0.00625    -0.00423    -0.03073     0.01408    -0.02939
 PZ  C  30  -0.14918     0.31324    -0.09458    -0.10186     0.37294    -0.20765




    ROOT NO.   49          50          51          52          53          54

             2.39136     2.42533     2.83902     3.13044     3.26136     3.30648
  
  
  S  C   1   0.09596    -0.04897    -0.19431    -0.06611     0.21687    -0.02257
 PX  C   1   0.02128    -0.01050    -0.01381    -0.01859    -0.00590    -0.06176
 PY  C   1   0.01420    -0.00502    -0.03182     0.00453     0.02567     0.04645
 PZ  C   1   0.05452     0.33120    -0.04321     0.22629     0.03652    -0.06195
  
  S  C   2  -0.14823     0.02338     0.23536     0.06688    -0.19446     0.13073
 PX  C   2  -0.03089     0.00663     0.01704     0.01153     0.02419     0.04461
 PY  C   2  -0.05053     0.00005     0.05544     0.00563    -0.02115     0.03844
 PZ  C   2  -0.03619    -0.26151     0.02585    -0.24482    -0.01411     0.05843
  
  S  C   3   0.22646    -0.02092    -0.29827    -0.04684     0.14753    -0.15422
 PX  C   3   0.01205    -0.00194     0.06250    -0.00157    -0.08052    -0.07682
 PY  C   3   0.02320    -0.00106    -0.02470     0.02033    -0.03024     0.09084
 PZ  C   3   0.01187     0.06439    -0.01948     0.28145     0.00431    -0.08471
  
  S  C   4  -0.21374     0.01883     0.30312    -0.02849    -0.08779    -0.14906
 PX  C   4  -0.03089     0.01252    -0.01069     0.01886     0.05836     0.04872
 PY  C   4   0.01494     0.00044    -0.06654    -0.01670     0.09619    -0.11088
 PZ  C   4  -0.01357    -0.04645     0.00516    -0.28603     0.00523     0.08915
  
  S  C   5   0.14472    -0.00493    -0.25292     0.04898     0.15126     0.18069
 PX  C   5   0.05024    -0.01189    -0.05297     0.00302    -0.01911     0.03234
 PY  C   5  -0.00180     0.00072     0.01383     0.00536    -0.02915    -0.00286
 PZ  C   5   0.01257     0.22732     0.02159     0.23187    -0.01420    -0.09510
  
  S  C   6  -0.09471     0.03453     0.20086     0.01119    -0.18893    -0.13751
 PX  C   6  -0.02491     0.02342     0.04171     0.01246    -0.02653    -0.01185
 PY  C   6  -0.01143     0.00269     0.00602    -0.02500     0.03486    -0.05819
 PZ  C   6  -0.03974    -0.31099     0.01721    -0.22159    -0.01568     0.06238
  
  S  C   7  -0.24184     0.03220     0.14846     0.04406     0.07685     0.23409
 PX  C   7  -0.00059     0.00953    -0.10058    -0.00508     0.11867     0.01498
 PY  C   7  -0.05363     0.00289    -0.02456     0.01450     0.06550     0.03085
 PZ  C   7   0.00869     0.14345     0.02383    -0.12649    -0.00144     0.06864
  
  S  C   8   0.22833    -0.03308    -0.15541     0.03505    -0.16970     0.20279
 PX  C   8   0.04572    -0.01661     0.06451     0.01528    -0.13461     0.02326
 PY  C   8  -0.02650     0.01075     0.06446    -0.01083    -0.05119    -0.00892
 PZ  C   8  -0.00340    -0.16224    -0.00201     0.13639    -0.00771    -0.04359
  
  S  C   9  -0.28815     0.06550     0.02480    -0.06387     0.36608    -0.16933
 PX  C   9  -0.02378     0.00682    -0.07638    -0.00397     0.03002     0.05506
 PY  C   9   0.02423    -0.01807    -0.02788    -0.04681    -0.03995    -0.16630
 PZ  C   9   0.04442     0.34878    -0.01599     0.01416    -0.01892     0.01308
  
  S  C  10   0.30962    -0.06522     0.00160    -0.03906    -0.29700    -0.22993
 PX  C  10   0.01585     0.00544     0.09464    -0.02624     0.03950    -0.09429
 PY  C  10   0.02454     0.01134     0.03756     0.03645    -0.09099     0.12723
 PZ  C  10  -0.06917    -0.33466    -0.00620    -0.01361     0.01032    -0.00407
  
  S  C  11  -0.28424     0.06177    -0.15116     0.07173     0.09301     0.28599
 PX  C  11   0.02805    -0.00799    -0.07374    -0.00564    -0.12395    -0.02535
 PY  C  11  -0.03140    -0.00172    -0.05741    -0.00891    -0.07353    -0.00408
 PZ  C  11   0.06015     0.13494     0.00324     0.14776    -0.00399    -0.05660
  
  S  H  12   0.16995    -0.03852     0.09835    -0.04055    -0.08976    -0.15413
  
  S  C  13   0.23122    -0.06355     0.09079     0.11728    -0.17151     0.26895
 PX  C  13  -0.00410    -0.00515     0.07849     0.00665     0.11856     0.01098
 PY  C  13  -0.04864     0.01923     0.02006     0.00529     0.07519    -0.01679
 PZ  C  13   0.00085    -0.15249     0.04607    -0.16834     0.02160     0.01880
  
  S  H  14   0.13476    -0.01839    -0.09662    -0.01237    -0.06679    -0.10896
  
  S  H  15  -0.06332     0.03265     0.12463     0.04423    -0.14105     0.02587
  
  S  H  16   0.07791    -0.01313    -0.14075    -0.03879     0.12170    -0.05316
  
  S  H  17  -0.08139     0.00026     0.15699    -0.02966    -0.11330    -0.08835
  
  S  H  18   0.05817    -0.01993    -0.12117    -0.00564     0.11022     0.09454
  
  S  H  19  -0.13085     0.01682     0.09179    -0.00365     0.10943    -0.08130
  
  S  H  20  -0.13482     0.03772    -0.05983    -0.06876     0.11104    -0.13162
  
  S  C  21  -0.17748     0.06075    -0.23498    -0.01316    -0.24608     0.14549
 PX  C  21   0.06666    -0.02629     0.05255    -0.01314     0.00278    -0.05840
 PY  C  21   0.00069    -0.00767    -0.01083    -0.00238    -0.03086    -0.02358
 PZ  C  21  -0.05883    -0.23228    -0.04870     0.24345    -0.01405    -0.07704
  
  S  C  22   0.10595    -0.07169     0.17699     0.07224     0.24900    -0.04508
 PX  C  22  -0.02730     0.01429    -0.03277    -0.01266    -0.02632    -0.01310
 PY  C  22  -0.00974     0.02374    -0.00539     0.01529     0.00727     0.09659
 PZ  C  22   0.11949     0.29859     0.08969    -0.23452     0.05131     0.05133
  
  S  C  23  -0.10861     0.02657    -0.16247    -0.09268    -0.19805    -0.16790
 PX  C  23   0.01767    -0.02163     0.00921     0.03080    -0.02867     0.07244
 PY  C  23   0.00746    -0.03178     0.02160     0.02247     0.03870    -0.03602
 PZ  C  23  -0.12430    -0.30212    -0.06748     0.25239    -0.00292    -0.04125
  
  S  C  24   0.14862    -0.04320     0.18235     0.11026     0.12871     0.24659
 PX  C  24  -0.02082     0.02020    -0.00514    -0.01694     0.04065    -0.02030
 PY  C  24  -0.04254     0.02258    -0.03600    -0.02844     0.00060    -0.03660
 PZ  C  24   0.11632     0.21894     0.07790    -0.25803     0.00841     0.06025
  
  S  H  25   0.09535    -0.03023     0.13715     0.02085     0.15387    -0.05504
  
  S  H  26  -0.06624     0.05060    -0.10964    -0.04434    -0.15492     0.04587
  
  S  H  27   0.07164    -0.01244     0.10419     0.05845     0.12624     0.11851
  
  S  H  28  -0.08139     0.02593    -0.11444    -0.06042    -0.09643    -0.12573
  
  S  C  29   0.25690    -0.06320     0.26915    -0.02836     0.15783    -0.14778
 PX  C  29  -0.01955     0.00026     0.03096    -0.01036     0.09761    -0.04978
 PY  C  29  -0.00567    -0.00064     0.03762     0.05842     0.04985     0.16155
 PZ  C  29  -0.04565     0.05782    -0.01162    -0.29110    -0.02617     0.12750
  
  S  C  30  -0.22050     0.06120    -0.21876    -0.11079    -0.07138    -0.21988
 PX  C  30   0.00159    -0.00448    -0.06349     0.02940    -0.11357     0.05763
 PY  C  30   0.02585    -0.00924     0.01748    -0.02742     0.00489    -0.12699
 PZ  C  30  -0.05967    -0.03032    -0.08172     0.30531    -0.01564    -0.09488




    ROOT NO.   55          56          57          58          59          60

             3.55839     3.66591     3.81406     3.85037     4.03056     4.18414
  
  
  S  C   1  -0.00316    -0.34678     0.09353    -0.23381    -0.04884    -0.13432
 PX  C   1   0.03354     0.12638    -0.06256    -0.06016     0.01841    -0.10396
 PY  C   1  -0.01952    -0.07232     0.02969     0.05536     0.00965     0.04560
 PZ  C   1  -0.14357    -0.03619     0.02130    -0.04346    -0.00129    -0.02921
  
  S  C   2  -0.05082    -0.01153     0.07551     0.27473    -0.01917     0.31444
 PX  C   2  -0.03030    -0.18178     0.07614    -0.02287    -0.02263     0.00494
 PY  C   2  -0.00554    -0.07510     0.03293    -0.01479    -0.00073    -0.06374
 PZ  C   2   0.17748    -0.00193    -0.01593     0.01399    -0.00573     0.01218
  
  S  C   3   0.05397     0.30401    -0.16642    -0.09742    -0.01682    -0.00149
 PX  C   3   0.00563     0.00428     0.04579    -0.03701    -0.08951     0.16071
 PY  C   3  -0.01401     0.07190    -0.01455     0.18865     0.03807     0.11144
 PZ  C   3  -0.28830     0.03081     0.02428    -0.02575     0.00903    -0.02201
  
  S  C   4   0.01600    -0.23592     0.11488    -0.25815    -0.09883    -0.02953
 PX  C   4  -0.04694    -0.11891     0.03508     0.08270    -0.01389     0.15798
 PY  C   4   0.00553     0.08649    -0.07542    -0.09770    -0.05599     0.07580
 PZ  C   4   0.29282    -0.04259    -0.02121     0.03371    -0.01136     0.04449
  
  S  C   5  -0.09507    -0.11942     0.03144     0.26281     0.01110     0.29904
 PX  C   5   0.02039     0.16866    -0.07298     0.06480     0.02573    -0.03475
 PY  C   5   0.00306     0.08425    -0.02827     0.05031     0.00553     0.06302
 PZ  C   5  -0.16253     0.03501     0.00606    -0.05904     0.00350    -0.06172
  
  S  C   6   0.06560     0.39516    -0.13697    -0.03677     0.01069    -0.07394
 PX  C   6  -0.00102     0.01154     0.00192    -0.00244     0.00899    -0.02800
 PY  C   6   0.01944    -0.08814     0.02344    -0.15658    -0.02124    -0.13676
 PZ  C   6   0.13892     0.01357    -0.01673     0.02852    -0.00012     0.01618
  
  S  C   7  -0.05498    -0.16181    -0.03152     0.15698     0.20644    -0.30129
 PX  C   7   0.01197     0.10971    -0.10658    -0.01441     0.02404    -0.06667
 PY  C   7  -0.01532     0.04729    -0.04991    -0.02233    -0.03733     0.04350
 PZ  C   7   0.25322    -0.04639    -0.02570     0.04003     0.00732     0.00089
  
  S  C   8   0.01170     0.10234     0.06135     0.20980     0.17628    -0.29064
 PX  C   8   0.00313    -0.06718     0.07757    -0.08530    -0.06052    -0.02491
 PY  C   8   0.02469    -0.05668     0.04293    -0.03785     0.00754    -0.08088
 PZ  C   8  -0.26461     0.04742     0.02252    -0.01934     0.01459    -0.04548
  
  S  C   9  -0.00163     0.05373    -0.18004     0.00336     0.08391     0.14103
 PX  C   9  -0.00421     0.05325     0.01281     0.11863     0.11505    -0.11626
 PY  C   9  -0.00904    -0.00574     0.10341     0.00749     0.10369     0.07473
 PZ  C   9   0.33589    -0.06571    -0.01541     0.03185     0.00490     0.02097
  
  S  C  10   0.02070    -0.07299     0.20733    -0.07765     0.00116     0.10695
 PX  C  10  -0.01400    -0.08435    -0.03875     0.06615     0.17594    -0.00209
 PY  C  10   0.00516    -0.06193     0.04057     0.05699     0.02201    -0.15501
 PZ  C  10  -0.32998     0.06427     0.03049    -0.03565     0.00391    -0.02447
  
  S  C  11   0.03265     0.15937     0.01745    -0.06404    -0.31913    -0.05355
 PX  C  11   0.02141     0.01644     0.12349    -0.08192    -0.04260     0.02484
 PY  C  11  -0.00394    -0.00127     0.08118    -0.04118     0.11206     0.02720
 PZ  C  11   0.22937    -0.06243    -0.03322     0.03635     0.02176     0.00949
  
  S  H  12  -0.02958    -0.12901    -0.01090     0.03289     0.33423     0.03542
  
  S  C  13  -0.00399    -0.05915    -0.13360    -0.10789    -0.31963    -0.05110
 PX  C  13  -0.00639    -0.00054    -0.14627    -0.04245     0.06917     0.04961
 PY  C  13   0.01830     0.00617    -0.07265    -0.02913    -0.04531     0.02296
 PZ  C  13  -0.24227     0.05079     0.01397    -0.02227    -0.01048    -0.00613
  
  S  H  14   0.03165     0.11992     0.02918    -0.09572    -0.19443     0.27278
  
  S  H  15   0.00253     0.22732    -0.06397     0.16242     0.04980     0.05277
  
  S  H  16   0.03329     0.00836    -0.05545    -0.16312     0.03720    -0.26860
  
  S  H  17   0.06781     0.08509    -0.02014    -0.16233     0.01350    -0.27009
  
  S  H  18  -0.03834    -0.24224     0.08511     0.02981     0.00796     0.00903
  
  S  H  19  -0.02273    -0.07685    -0.04833    -0.12957    -0.16698     0.25971
  
  S  H  20  -0.00042     0.05029     0.09834     0.06950     0.30613     0.02777
  
  S  C  21  -0.01669    -0.01421    -0.04328    -0.26396     0.25046     0.13849
 PX  C  21  -0.02758    -0.06469    -0.16088     0.02076     0.02831     0.02507
 PY  C  21  -0.01493    -0.04714    -0.10841     0.03504    -0.04220    -0.01934
 PZ  C  21   0.13830    -0.04757    -0.03617     0.02129     0.01657     0.00385
  
  S  C  22   0.08874     0.13785     0.35160     0.09864    -0.07562    -0.06277
 PX  C  22  -0.00484    -0.00774     0.00526     0.00861     0.01390    -0.00197
 PY  C  22   0.02272     0.06626     0.11714    -0.12547     0.09858     0.05819
 PZ  C  22  -0.10484     0.05347     0.07349     0.01013    -0.03134    -0.01689
  
  S  C  23  -0.09009    -0.18472    -0.33323     0.15540    -0.08946    -0.05582
 PX  C  23  -0.00433    -0.02294    -0.11682    -0.09608     0.10093     0.06073
 PY  C  23   0.01865     0.00845     0.04552     0.05228    -0.02773    -0.02678
 PZ  C  23   0.12509    -0.01576     0.01196    -0.00381     0.01901     0.00739
  
  S  C  24   0.04716     0.07981    -0.02515    -0.26979     0.25734     0.14786
 PX  C  24   0.01848     0.06197     0.17635     0.01178    -0.02041    -0.01221
 PY  C  24   0.00576     0.03292     0.10851    -0.01286     0.02939     0.02428
 PZ  C  24  -0.15218     0.02679    -0.00968    -0.01488    -0.01739    -0.00298
  
  S  H  25   0.01543     0.01689     0.02087     0.17113    -0.21983    -0.11166
  
  S  H  26  -0.05646    -0.08157    -0.22449    -0.06648     0.01905     0.03299
  
  S  H  27   0.05748     0.12450     0.22463    -0.09890     0.02573     0.02557
  
  S  H  28  -0.03160    -0.05202     0.01106     0.17899    -0.22196    -0.12057
  
  S  C  29  -0.05006    -0.10637    -0.26557     0.15152     0.00173    -0.02023
 PX  C  29   0.00578     0.03859     0.08814     0.12870    -0.14544    -0.07825
 PY  C  29   0.00909     0.02477    -0.11872    -0.07255    -0.09174     0.00531
 PZ  C  29  -0.23812     0.08919     0.08998    -0.07391    -0.02012    -0.00003
  
  S  C  30   0.00473     0.05537     0.34711     0.12821    -0.00621    -0.04521
 PX  C  30   0.00473    -0.01777     0.01131     0.00025    -0.15550    -0.04673
 PY  C  30  -0.01943    -0.06183    -0.06836     0.14584    -0.07293    -0.05950
 PZ  C  30   0.26031    -0.05711     0.00435     0.04362     0.03321     0.00215




    ROOT NO.   61          62          63          64          65          66

             5.08837     5.37517     5.43376     5.65018     6.05091     6.33237
  
  
  S  C   1   0.09993     0.01139    -0.28699     0.07488     0.04610    -0.01987
 PX  C   1  -0.11021    -0.01818     0.10401    -0.15934    -0.10487     0.05614
 PY  C   1  -0.00505     0.00042     0.30852     0.02267    -0.00440     0.00371
 PZ  C   1   0.00833     0.00078    -0.02030     0.00298     0.00036     0.00092
  
  S  C   2   0.14511     0.02469    -0.09640     0.19470     0.12103    -0.06998
 PX  C   2   0.09139     0.01205    -0.18542     0.08044     0.04825    -0.02531
 PY  C   2  -0.02946    -0.01112     0.10623    -0.13294    -0.15585     0.13911
 PZ  C   2  -0.00390    -0.00068    -0.00796    -0.00522    -0.00175    -0.00031
  
  S  C   3  -0.06770    -0.00398    -0.00429     0.06980     0.12986    -0.12051
 PX  C   3   0.14318     0.01465     0.02561     0.07923    -0.05409     0.09350
 PY  C   3   0.03246     0.01262    -0.06401     0.13343     0.15115    -0.13470
 PZ  C   3   0.00598     0.00116     0.00687     0.00350     0.00126    -0.00183
  
  S  C   4   0.05323    -0.00302     0.03372    -0.09443    -0.15457     0.13841
 PX  C   4  -0.09974    -0.01381    -0.00457    -0.14105    -0.07909     0.04189
 PY  C   4  -0.11655    -0.01386     0.03848     0.00865     0.12877    -0.14668
 PZ  C   4  -0.01509    -0.00195     0.00121    -0.00918     0.00103    -0.00412
  
  S  C   5  -0.13819    -0.01825    -0.05618    -0.19669    -0.11231     0.05573
 PX  C   5  -0.01705     0.00140    -0.04687     0.08772     0.13214    -0.11384
 PY  C   5  -0.07929    -0.01363    -0.20770    -0.19274    -0.15205     0.10982
 PZ  C   5   0.01990     0.00263    -0.00217     0.02600     0.01564    -0.00812
  
  S  C   6  -0.07573    -0.01220    -0.31118    -0.12532    -0.05393     0.02514
 PX  C   6   0.03964     0.00815     0.27531     0.11280     0.06314    -0.03348
 PY  C   6   0.09865     0.01383    -0.09593     0.13323     0.08489    -0.04208
 PZ  C   6  -0.00438    -0.00029     0.00557     0.00093     0.00227    -0.00169
  
  S  C   7  -0.20554    -0.02009    -0.04912    -0.09655     0.06843    -0.12494
 PX  C   7  -0.07838    -0.00893    -0.05801     0.03544     0.10046    -0.10081
 PY  C   7   0.07109     0.00505     0.01764     0.11667    -0.06223     0.26369
 PZ  C   7  -0.01089    -0.00162    -0.00479     0.00209     0.00128     0.01007
  
  S  C   8   0.22986     0.02649    -0.04931     0.08983    -0.07928     0.12456
 PX  C   8  -0.02589    -0.02143     0.00158    -0.11476     0.01008    -0.12403
 PY  C   8   0.10614     0.01254    -0.04138     0.00777    -0.14941     0.23078
 PZ  C   8   0.02346     0.00271    -0.00432     0.00866    -0.01269     0.02077
  
  S  C   9  -0.01423     0.03095     0.00987     0.15020    -0.00295     0.16015
 PX  C   9   0.16857     0.01855    -0.02012     0.06063    -0.06633     0.10783
 PY  C   9   0.10907     0.02535     0.02996    -0.11618    -0.05068    -0.17523
 PZ  C   9   0.00204     0.00072     0.00134    -0.00957    -0.00144    -0.01014
  
  S  C  10   0.02587     0.00897     0.03986    -0.15943    -0.01963    -0.20086
 PX  C  10  -0.15841     0.00976    -0.01208     0.05610     0.06215     0.05783
[...]
  S   H   18    0.0856   -0.0453   -0.0257   -0.0767    0.0257   -0.0202    0.3093    0.0956
  S   H   19    0.1453   -0.2587    0.1837    0.2300    0.1178   -0.0147    0.0491   -0.1126
  S   H   20   -0.1460   -0.2009    0.2963   -0.0169    0.1493    0.0646   -0.0085    0.1255
  S   C   21   -0.1527   -0.0547   -0.0402    0.0101   -0.0008    0.0865    0.0072    0.0489
  Px  C   21   -0.1569   -0.1060   -0.2815    0.1690    0.1589   -0.1075   -0.0059   -0.1528
  Py  C   21    0.1791    0.0823    0.0894   -0.0611   -0.0559    0.2801    0.0227    0.0967
  Pz  C   21   -0.0008   -0.0008    0.0048   -0.0037   -0.0049   -0.0173   -0.0018    0.0065
  S   C   22   -0.0646   -0.0079    0.0763   -0.0345   -0.0277   -0.1117   -0.0099    0.0293
  Px  C   22   -0.0740   -0.0159    0.0879   -0.0469   -0.0386    0.4818    0.0426   -0.0950
  Py  C   22   -0.1084   -0.0371   -0.0573    0.0260    0.0209   -0.0341   -0.0028    0.1013
  Pz  C   22    0.0002    0.0027    0.0128   -0.0052   -0.0037   -0.0296   -0.0026    0.0019
  S   C   23    0.0602    0.0219    0.0689   -0.0308   -0.0237    0.0990    0.0088   -0.0591
  Px  C   23    0.1386    0.0366   -0.0169    0.0081    0.0157   -0.1942   -0.0183    0.0829
  Py  C   23    0.0135    0.0126    0.0979   -0.0480   -0.0346   -0.4426   -0.0396    0.2056
  Pz  C   23   -0.0147   -0.0054   -0.0123    0.0060    0.0043    0.0260    0.0024   -0.0114
  S   C   24    0.1470    0.0393   -0.0319    0.0051   -0.0028   -0.0756   -0.0065    0.0096
  Px  C   24   -0.0651   -0.0266   -0.0505    0.0284    0.0320   -0.1878   -0.0171    0.1027
  Py  C   24    0.2199    0.0917   -0.3036    0.1548    0.1217    0.2381    0.0170    0.0362
  Pz  C   24   -0.0058   -0.0023    0.0144   -0.0086   -0.0086   -0.0029   -0.0001   -0.0041
  S   H   25    0.2594    0.1232    0.2017   -0.1183   -0.1054    0.1658    0.0123    0.0987
  S   H   26    0.1000    0.0227   -0.0834    0.0396    0.0300   -0.2907   -0.0258    0.0557
  S   H   27   -0.1054   -0.0380   -0.0719    0.0325    0.0187    0.2944    0.0269   -0.1348
  S   H   28   -0.2446   -0.0866    0.2001   -0.0957   -0.0676   -0.1781   -0.0137    0.0091
  S   C   29   -0.1776   -0.1130   -0.2007    0.1316    0.1410    0.0235    0.0016   -0.0097
  Px  C   29    0.1305    0.0484   -0.0502    0.0552    0.0794   -0.1329   -0.0068   -0.1990
  Py  C   29   -0.1546   -0.1006    0.1373   -0.0787   -0.0998   -0.0360   -0.0034   -0.1519
  Pz  C   29    0.0317    0.0214    0.0365   -0.0259   -0.0303   -0.0023   -0.0002    0.0060
  S   C   30    0.1877    0.0855   -0.2368    0.1301    0.1287   -0.0157   -0.0010    0.0188
  Px  C   30    0.0640    0.0735    0.0248   -0.0234   -0.0377    0.0999    0.0061    0.1234
  Py  C   30   -0.1647   -0.0910   -0.0776    0.0808    0.1154    0.1006    0.0041    0.0369
  Pz  C   30    0.0216    0.0082   -0.0080    0.0092    0.0160   -0.0115   -0.0006   -0.0040


   Root No.      73        74        75        76        77        78        79        80

                24 a"     28 a'     29 a'     25 a"     26 a"     30 a'     31 a'     27 a"  

                 9.292     9.528    10.032    10.684    10.870    11.636    11.833    12.136
  
  S   C    1    0.0570    0.0757   -0.0503   -0.0848    0.0149    0.0180    0.0023   -0.0164
  Px  C    1    0.1453    0.2159    0.0610   -0.1612   -0.1992   -0.0673   -0.1840   -0.2049
  Py  C    1    0.1005    0.0873   -0.2255   -0.1152    0.1981    0.0937    0.1457    0.1179
  Pz  C    1    0.0101    0.0137   -0.0029   -0.0122   -0.0045    0.0003   -0.0069   -0.0097
  S   C    2   -0.0648   -0.0939   -0.0701    0.0231    0.1008    0.0523    0.0388    0.0208
  Px  C    2    0.1421    0.2121   -0.0093   -0.2108   -0.1160   -0.0037   -0.1591   -0.2158
  Py  C    2   -0.1581   -0.1972   -0.2148   -0.0751    0.1827    0.1371   -0.0232   -0.0993
  Pz  C    2    0.0122    0.0182    0.0049   -0.0129   -0.0143   -0.0044   -0.0113   -0.0125
  S   C    3   -0.0225   -0.0478   -0.0060    0.0503    0.0489    0.0199    0.0178    0.0136
  Px  C    3   -0.1052   -0.1683   -0.2549   -0.0519    0.0252   -0.2328    0.0674    0.1224
  Py  C    3   -0.0455   -0.0298   -0.1428   -0.1447    0.2093    0.3378   -0.1378   -0.2964
  Pz  C    3    0.0020    0.0042    0.0017   -0.0029    0.0048    0.0137   -0.0056   -0.0098
  S   C    4   -0.0198   -0.0544    0.0024    0.0683   -0.0128   -0.0189   -0.0236   -0.0129
  Px  C    4   -0.1772   -0.1235    0.2442   -0.0408   -0.2347   -0.1278    0.1075    0.1569
  Py  C    4   -0.1156   -0.1165    0.1162   -0.0133    0.1069    0.3894   -0.1212   -0.2738
  Pz  C    4   -0.0033   -0.0039    0.0056    0.0004    0.0024    0.0130   -0.0042   -0.0100
  S   C    5   -0.0828   -0.1006    0.0715    0.0640   -0.0790   -0.0545   -0.0319   -0.0108
  Px  C    5   -0.1003   -0.0330    0.1620   -0.1195   -0.1608   -0.0885    0.1411    0.1795
  Py  C    5    0.2321    0.3056   -0.1000   -0.2191    0.0994    0.0891    0.1296    0.1031
  Pz  C    5    0.0110    0.0184   -0.0034   -0.0188    0.0044    0.0048    0.0135    0.0121
  S   C    6    0.0358    0.0708    0.0484   -0.0604   -0.0555   -0.0126    0.0020    0.0032
  Px  C    6    0.1104    0.2166    0.1614   -0.1421   -0.1457   -0.0289   -0.0037   -0.0034
  Py  C    6    0.1077    0.1468   -0.1756   -0.1999    0.2014    0.1187    0.2461    0.2173
  Pz  C    6    0.0161    0.0262    0.0005   -0.0233    0.0012    0.0042    0.0157    0.0145
  S   C    7    0.0439    0.0404    0.0822    0.0621    0.0547    0.0809    0.0380   -0.0114
  Px  C    7   -0.0859   -0.1581   -0.1629    0.0243    0.0671   -0.1692    0.1247    0.1386
  Py  C    7    0.1339    0.0447    0.1286    0.1929    0.1780    0.0919    0.1638    0.0249
  Pz  C    7    0.0120    0.0063    0.0159    0.0175    0.0161    0.0138    0.0136    0.0007
  S   C    8    0.0944    0.0373   -0.0784    0.0806   -0.0142   -0.0854   -0.0473    0.0176
  Px  C    8    0.1473   -0.0672   -0.0153    0.2331   -0.0683    0.0267   -0.2008   -0.0980
  Py  C    8   -0.2692   -0.1514    0.1878   -0.1037   -0.0004    0.2055    0.0103   -0.1119
  Pz  C    8   -0.0129   -0.0089    0.0091   -0.0013   -0.0012    0.0103   -0.0022   -0.0066
  S   C    9   -0.0117    0.0406   -0.0366   -0.0095    0.0079   -0.0408   -0.0282    0.0031
  Px  C    9    0.2130   -0.0289   -0.0802    0.2903   -0.1082   -0.0597   -0.2276   -0.0778
  Py  C    9    0.1046    0.0370    0.0876    0.1731   -0.0826    0.1043    0.3957   -0.0560
  Pz  C    9    0.0091    0.0010    0.0030    0.0120   -0.0042    0.0026    0.0132   -0.0053
  S   C   10   -0.0112    0.0393    0.0403   -0.0052   -0.0039    0.0326    0.0176    0.0028
  Px  C   10    0.0693    0.0278   -0.0254    0.1689    0.2759   -0.0602   -0.2137    0.0999
  Py  C   10    0.0471   -0.0345    0.1109    0.1207    0.1102    0.1138    0.4135    0.0347
  Pz  C   10    0.0069   -0.0020    0.0060    0.0154    0.0181    0.0029    0.0197    0.0062
  S   C   11   -0.0469    0.0353    0.0691   -0.0524   -0.0629    0.0744    0.0364    0.0168
  Px  C   11    0.0316    0.0685    0.0308    0.1455    0.2101    0.0106   -0.1986    0.1249
  Py  C   11   -0.1421    0.1276    0.1625   -0.0654   -0.0526    0.1622   -0.0120    0.1181
  Pz  C   11   -0.0078    0.0094    0.0132   -0.0002    0.0050    0.0098   -0.0074    0.0110
  S   H   12   -0.0727    0.0412    0.0644   -0.0557   -0.0794    0.0799    0.0448    0.0286
  S   C   13   -0.0970    0.0456   -0.0574   -0.0822    0.0290   -0.0809   -0.0287   -0.0204
  Px  C   13   -0.1503    0.1668   -0.1306    0.0606   -0.0217   -0.1709    0.1109   -0.1614
  Py  C   13    0.2722   -0.0525    0.0760    0.2588   -0.0771    0.0880    0.1391   -0.0194
  Pz  C   13    0.0222   -0.0095    0.0128    0.0154   -0.0054    0.0169    0.0046    0.0058
  S   H   14    0.0883    0.0599    0.1026    0.0809    0.0731    0.0946    0.0522   -0.0268
  S   H   15    0.0944    0.1091   -0.0964   -0.1067    0.0389    0.0282    0.0144   -0.0058
  S   H   16   -0.1162   -0.1518   -0.1143    0.0069    0.1271    0.0780    0.0278    0.0002
  S   H   17   -0.1410   -0.1566    0.0941    0.0748   -0.0964   -0.0745   -0.0265    0.0001
  S   H   18    0.0632    0.1285    0.1028   -0.0807   -0.0916   -0.0218   -0.0056   -0.0042
  S   H   19    0.1738    0.0553   -0.0949    0.1036   -0.0241   -0.1007   -0.0583    0.0334
  S   H   20   -0.1738    0.0638   -0.0684   -0.1087    0.0392   -0.0895   -0.0459   -0.0318
  S   C   21    0.0683   -0.0838   -0.0753   -0.0199   -0.1000    0.0433    0.0361   -0.0274
  Px  C   21   -0.0450    0.0249    0.1757   -0.1782    0.0723   -0.0760    0.0942   -0.1719
  Py  C   21    0.2041   -0.2456   -0.1128   -0.1302   -0.2001    0.0758    0.1117   -0.1254
  Pz  C   21   -0.0141    0.0190   -0.0051    0.0247    0.0130   -0.0022   -0.0185    0.0247
  S   C   22   -0.0590    0.0712   -0.0497    0.0876   -0.0099    0.0102    0.0007    0.0046
  Px  C   22    0.1891   -0.2055    0.1351   -0.1969    0.0333   -0.0248   -0.0124    0.0063
  Py  C   22    0.0683   -0.1084   -0.1796   -0.0526   -0.2687    0.1001    0.2029   -0.2394
  Pz  C   22   -0.0168    0.0206   -0.0022    0.0194    0.0102   -0.0030   -0.0085    0.0109
  S   C   23   -0.0367    0.0621    0.0560    0.0631    0.0653   -0.0187   -0.0026   -0.0124
  Px  C   23    0.1440   -0.2073    0.0438   -0.2573    0.0533   -0.0493   -0.1592    0.2174
  Py  C   23    0.0180   -0.0589   -0.2361    0.0103   -0.2239    0.0785    0.1198   -0.1276
  Pz  C   23   -0.0092    0.0138    0.0040    0.0135    0.0025    0.0004    0.0066   -0.0098
  S   C   24    0.0823   -0.0947    0.0591   -0.0760    0.0631   -0.0439   -0.0278    0.0169
  Px  C   24    0.1417   -0.2102   -0.0228   -0.2582   -0.0415    0.0030   -0.1376    0.2217
  Py  C   24   -0.2282    0.2016   -0.1839    0.0412   -0.1846    0.1212   -0.0350    0.1142
  Pz  C   24    0.0028    0.0007    0.0067    0.0086    0.0081   -0.0044    0.0057   -0.0116
  S   H   25    0.1071   -0.1181   -0.1128    0.0011   -0.1209    0.0658    0.0237   -0.0038
  S   H   26   -0.1151    0.1256   -0.0774    0.1173   -0.0164    0.0148    0.0046   -0.0006
  S   H   27   -0.0441    0.0843    0.1130    0.0631    0.1005   -0.0286   -0.0148    0.0017
  S   H   28    0.1551   -0.1596    0.0880   -0.0940    0.0849   -0.0642   -0.0226    0.0050
  S   C   29    0.0301   -0.0499   -0.0167   -0.0448   -0.0730    0.0430    0.0167    0.0008
  Px  C   29   -0.0820    0.0802    0.2575   -0.1560    0.1813   -0.1230    0.0701   -0.1587
  Py  C   29   -0.0739    0.1145    0.1058    0.0554   -0.1068    0.3382   -0.1272    0.2956
  Pz  C   29   -0.0025    0.0066   -0.0019    0.0098    0.0095   -0.0076   -0.0006   -0.0018
  S   C   30    0.0293   -0.0530    0.0090   -0.0679    0.0109   -0.0118   -0.0141    0.0141
  Px  C   30   -0.2180    0.1812   -0.1991   -0.0339   -0.0076   -0.2333    0.0604   -0.1505
  Py  C   30   -0.1004    0.0615   -0.1549    0.0011   -0.2755    0.3129   -0.1319    0.3217
  Pz  C   30    0.0150   -0.0145    0.0168   -0.0046    0.0201   -0.0158    0.0064   -0.0171


   Root No.      81        82        83        84

                32 a'     33 a'     28 a"     29 a"  

                12.629    12.749    13.141    14.431
  
  S   C    1   -0.0676   -0.0278   -0.0152    0.0452
  Px  C    1   -0.1607   -0.2354   -0.1979    0.1076
  Py  C    1   -0.0478    0.1136    0.1156    0.0275
  Pz  C    1   -0.0105   -0.0113   -0.0087    0.0072
  S   C    2    0.0012    0.0231    0.0241    0.0193
  Px  C    2   -0.2108   -0.2501   -0.1974    0.1564
  Py  C    2   -0.1224   -0.0916   -0.0462    0.1205
  Pz  C    2   -0.0113   -0.0139   -0.0111    0.0067
  S   C    3    0.0130    0.0042   -0.0082    0.0235
  Px  C    3   -0.2370   -0.1311   -0.2488    0.2352
  Py  C    3   -0.0947   -0.1479   -0.0043    0.1011
  Pz  C    3    0.0036    0.0013    0.0076   -0.0033
  S   C    4    0.0116   -0.0020    0.0072    0.0264
  Px  C    4   -0.2679    0.1193    0.1658    0.2359
  Py  C    4   -0.0876   -0.0121    0.2125    0.1369
  Pz  C    4   -0.0040   -0.0012    0.0072    0.0064
  S   C    5   -0.0118   -0.0170   -0.0156    0.0274
  Px  C    5   -0.2702    0.1366    0.1686    0.2020
  Py  C    5   -0.1202    0.1136    0.1397    0.0642
  Pz  C    5   -0.0142    0.0113    0.0134    0.0080
  S   C    6   -0.0685    0.0002    0.0150    0.0447
  Px  C    6   -0.1427   -0.0103    0.0210    0.0884
  Py  C    6   -0.1341    0.2154    0.2333    0.0782
  Pz  C    6   -0.0190    0.0135    0.0165    0.0111
  S   C    7    0.0649   -0.0039    0.0058    0.0028
  Px  C    7   -0.1827   -0.1307   -0.2526    0.2482
  Py  C    7    0.0356   -0.1115   -0.1238    0.1395
  Pz  C    7    0.0077   -0.0072   -0.0070    0.0088
  S   C    8    0.0577    0.0182   -0.0126    0.0038
  Px  C    8   -0.0945    0.1283    0.2543    0.2784
  Py  C    8   -0.1521   -0.0030    0.1491    0.1293
  Pz  C    8   -0.0074    0.0012    0.0103    0.0096
  S   C    9    0.0574    0.0047   -0.0066   -0.0055
  Px  C    9   -0.0196    0.1245    0.2424    0.2811
  Py  C    9    0.1034   -0.2854    0.0638    0.1249
  Pz  C    9    0.0036   -0.0097    0.0079    0.0099
  S   C   10    0.0553    0.0129   -0.0025   -0.0075
  Px  C   10   -0.0160    0.1578   -0.1950    0.2646
  Py  C   10    0.0078   -0.2854   -0.1568    0.1249
  Pz  C   10   -0.0008   -0.0125   -0.0186    0.0180
  S   C   11    0.0625    0.0066   -0.0209   -0.0069
  Px  C   11    0.0541    0.1859   -0.2124    0.2589
  Py  C   11    0.1464    0.0751   -0.1514    0.1168
  Pz  C   11    0.0088    0.0108   -0.0164    0.0143
  S   H   12    0.0434   -0.0178   -0.0171   -0.0096
  S   C   13    0.0637    0.0093    0.0149   -0.0028
  Px  C   13    0.2443   -0.1257    0.2215    0.2505
  Py  C   13    0.0135   -0.1197    0.0809    0.1403
  Pz  C   13   -0.0104   -0.0004   -0.0057   -0.0007
  S   H   14    0.0529   -0.0279    0.0019    0.0064
  S   H   15   -0.0687   -0.0144   -0.0014    0.0413
  S   H   16   -0.0073    0.0163    0.0283    0.0165
  S   H   17   -0.0082   -0.0193   -0.0276    0.0150
  S   H   18   -0.0776   -0.0102    0.0055    0.0448
  S   H   19    0.0369    0.0383   -0.0064    0.0083
  S   H   20    0.0400    0.0319    0.0143   -0.0077
  S   C   21   -0.0040    0.0355   -0.0215   -0.0183
  Px  C   21    0.2306    0.2238   -0.1336    0.1776
  Py  C   21    0.1043    0.1959   -0.1297    0.0637
  Pz  C   21   -0.0258   -0.0345    0.0220   -0.0178
  S   C   22   -0.0711   -0.0229    0.0161   -0.0412
  Px  C   22    0.1372    0.0225   -0.0164    0.0740
  Py  C   22    0.0925    0.3174   -0.2014    0.0734
  Pz  C   22   -0.0174   -0.0184    0.0122   -0.0110
  S   C   23   -0.0781    0.0046   -0.0039   -0.0424
  Px  C   23    0.2217   -0.2348    0.1498    0.0989
  Py  C   23    0.0350    0.1578   -0.0966    0.0297
  Pz  C   23   -0.0119    0.0096   -0.0059   -0.0054
  S   C   24    0.0029   -0.0295    0.0219   -0.0190
  Px  C   24    0.2802   -0.2234    0.1388    0.1445
  Py  C   24    0.1536   -0.0595    0.0191    0.1130
  Pz  C   24   -0.0171    0.0094   -0.0051   -0.0107
  S   H   25   -0.0173    0.0279   -0.0257   -0.0165
  S   H   26   -0.0780   -0.0138    0.0089   -0.0395
  S   H   27   -0.0735   -0.0143    0.0083   -0.0373
  S   H   28    0.0086   -0.0343    0.0316   -0.0093
  S   C   29    0.0077    0.0034    0.0007   -0.0291
  Px  C   29    0.2298    0.2095   -0.1337    0.2099
  Py  C   29    0.0910    0.0782   -0.2249    0.1264
  Pz  C   29   -0.0038   -0.0033    0.0030    0.0017
  S   C   30    0.0037   -0.0002   -0.0098   -0.0286
  Px  C   30    0.2838   -0.1108    0.2160    0.2241
  Py  C   30    0.1349   -0.0964   -0.0455    0.0903
  Pz  C   30   -0.0187    0.0109   -0.0049   -0.0145


              NET ATOMIC CHARGES AND DIPOLE CONTRIBUTIONS

  ATOM NO.   TYPE          CHARGE      No. of ELECS.   s-Pop       p-Pop       
    1          C          -0.025014        4.0250     1.09313     2.93188
    2          C          -0.024026        4.0240     1.09365     2.93038
    3          C           0.005661        3.9943     1.07335     2.92099
    4          C           0.014659        3.9853     1.06273     2.92262
    5          C          -0.027818        4.0278     1.09980     2.92801
    6          C          -0.026246        4.0262     1.09583     2.93042
    7          C          -0.032301        4.0323     1.10068     2.93162
    8          C          -0.031928        4.0319     1.09493     2.93699
    9          C           0.014466        3.9855     1.06355     2.92199
   10          C           0.018065        3.9819     1.05895     2.92298
   11          C          -0.031629        4.0316     1.11572     2.91591
   12          H           0.019229        0.9808     0.98077
   13          C          -0.038669        4.0387     1.10944     2.92923
   14          H           0.027122        0.9729     0.97288
   15          H           0.022271        0.9777     0.97773
   16          H           0.019782        0.9802     0.98022
   17          H           0.019198        0.9808     0.98080
   18          H           0.027139        0.9729     0.97286
   19          H           0.024168        0.9758     0.97583
   20          H           0.024478        0.9755     0.97552
   21          C          -0.022181        4.0222     1.09968     2.92250
   22          C          -0.018438        4.0184     1.09018     2.92825
   23          C          -0.029144        4.0291     1.09622     2.93293
   24          C          -0.030893        4.0309     1.10705     2.92384
   25          H           0.014891        0.9851     0.98511
   26          H           0.024233        0.9758     0.97577
   27          H           0.025973        0.9740     0.97403
   28          H           0.019511        0.9805     0.98049
   29          C           0.006547        3.9935     1.08083     2.91262
   30          C           0.010895        3.9891     1.07190     2.91721
 DIPOLE           X         Y         Z       TOTAL
 POINT-CHG.    -0.101    -0.063    -0.012     0.120
 HYBRID        -0.050     0.083    -0.087     0.131
 SUM           -0.151     0.021    -0.099     0.182


          ATOMIC ORBITAL ELECTRON POPULATIONS

     Atom    s        px        py        pz   
    1  C   1.09313   0.98730   0.94511   0.99947
    2  C   1.09365   0.98639   0.94468   0.99930
    3  C   1.07335   0.97049   0.96412   0.98638
    4  C   1.06273   0.96779   0.97416   0.98066
    5  C   1.09980   0.97112   0.94985   1.00704
    6  C   1.09583   0.94729   0.98892   0.99421
    7  C   1.10068   0.97327   0.94622   1.01214
    8  C   1.09493   0.96385   0.95554   1.01760
    9  C   1.06355   0.96727   0.96887   0.98584
   10  C   1.05895   0.96228   0.97228   0.98842
   11  C   1.11572   0.95760   0.94499   1.01331
   12  H   0.98077
   13  C   1.10944   0.97438   0.93986   1.01499
   14  H   0.97288
   15  H   0.97773
   16  H   0.98022
   17  H   0.98080
   18  H   0.97286
   19  H   0.97583
   20  H   0.97552
   21  C   1.09968   0.95442   0.96379   1.00429
   22  C   1.09018   0.94261   0.98863   0.99702
   23  C   1.09622   0.98932   0.94444   0.99917
   24  C   1.10705   0.97311   0.94952   1.00122
   25  H   0.98511
   26  H   0.97577
   27  H   0.97403
   28  H   0.98049
   29  C   1.08083   0.95342   0.97634   0.98286
   30  C   1.07190   0.97457   0.96925   0.97339

 **********************
 *                    *
 * JOB ENDED NORMALLY *
 *                    *
 **********************



 TOTAL JOB TIME:             1.16 SECONDS

 == MOPAC DONE ==


          MOPAC Job: "./tetraceneTraj/tetracene_2338.mop" ended normally on Feb 15, 2023, at 11:41.

rm: cannot remove ./tetraceneTraj/tetracene_2338.cim: No such file or directory
rm: cannot remove ./tetraceneTraj/tetracene_2338.end: No such file or directory
rm: cannot remove ./tetraceneTraj/tetracene_2338.log: No such file or directory
rm: cannot remove ./tetraceneTraj/tetracene_2338.temp: No such file or directory
rm: cannot remove ./tetraceneTraj/tetracene_2338.ple: No such file or directory
rm: cannot remove ./tetraceneTraj/tetracene_2338.sts: No such file or directory
