 *******************************************************************************
 ** Site#:    0         For non-commercial use only    Version 20.173L 64BITS **
 *******************************************************************************
 ** Cite this program as: MOPAC2016, Version: 20.173L, James J. P. Stewart,   **
 ** Stewart Computational Chemistry, web-site: HTTP://OpenMOPAC.net.          **
 *******************************************************************************
 **                                                                           **
 **                                MOPAC2016                                  **
 **                                                                           **
 *******************************************************************************

                              INDO CALCULATION RESULTS

 *******************************************************************************
 *  CALCULATION DONE:                                Wed Feb 15 11:29:45 2023  *
 *  INDO       - The INDO Hamiltonian to be used
 *
 *
 *
 *                 CHARGE ON SYSTEM = 0
 *
 *
 *
 *  C.I.=(N,M) - 3 DOUBLY FILLED LEVELS USED IN A C.I. INVOLVING 6 M.O.'S
 *  T=         - A TIME OF 172800.0 SECONDS REQUESTED
 *  DUMP=N     - RESTART FILE WRITTEN EVERY 7200.0 SECONDS REQUESTED
 *  RELSCF     - DEFAULT SCF CRITERION MULTIPLIED BY 0.0000
 *              (DEFAULT SCF CRITERION = 0.00010)
 *  ALLVEC     - PRINT ALL EIGENVECTORS
 **********
 *  WARNING: Specified print options may not behave as expected with INDO
 **********
 *******************************************************************************
INDO C.I.=(6,3) AllVEC CHARGE=0 RELSCF=0.000001


   ATOM   CHEMICAL          X               Y               Z
  NUMBER   SYMBOL      (ANGSTROMS)     (ANGSTROMS)     (ANGSTROMS)
 
     1       C         18.47251586  *  19.50262826  *  22.32917191  *
     2       C         19.84708468  *  19.44413597  *  22.34562649  *
     3       C         20.67811959  *  20.64663152  *  22.42799421  *
     4       C         20.00005060  *  21.94515580  *  22.39321137  *
     5       C         18.50507895  *  21.97550717  *  22.41140172  *
     6       C         17.78824902  *  20.79241579  *  22.35736206  *
     7       C         22.07886236  *  20.60270574  *  22.47175146  *
     8       C         20.71937105  *  23.16708763  *  22.43627221  *
     9       C         22.13986991  *  23.10512294  *  22.58668101  *
    10       C         22.85507617  *  21.80913742  *  22.60774312  *
    11       C         24.30426819  *  21.83099773  *  22.62466702  *
    12       H         24.85269961  *  20.90639198  *  22.47709627  *
    13       C         22.91747406  *  24.32722747  *  22.56447116  *
    14       H         22.62031285  *  19.60788853  *  22.44864750  *
    15       H         17.84192777  *  18.62399293  *  22.23018541  *
    16       H         20.35329590  *  18.43771751  *  22.24633741  *
    17       H         18.00978731  *  22.97706630  *  22.47507867  *
    18       H         16.68115572  *  20.90047351  *  22.25986286  *
    19       H         20.18496146  *  24.12846885  *  22.41946519  *
    20       H         22.34626135  *  25.25441963  *  22.51355223  *
    21       C         26.48189553  *  23.09954281  *  22.51022655  *
    22       C         27.17581675  *  24.27378587  *  22.45914981  *
    23       C         26.50732212  *  25.54584187  *  22.57784687  *
    24       C         25.12987866  *  25.56860098  *  22.63889623  *
    25       H         26.99815030  *  22.16259233  *  22.32462553  *
    26       H         28.27807441  *  24.26774292  *  22.22176111  *
    27       H         27.11152343  *  26.46436397  *  22.55163583  *
    28       H         24.55780479  *  26.58040371  *  22.76807960  *
    29       C         25.07031412  *  22.99738561  *  22.67187085  *
    30       C         24.34253109  *  24.33992379  *  22.67499366  *
 


          CARTESIAN COORDINATES 

    NO.       ATOM           X           Y           Z

     1         C         18.4725     19.5026     22.3292
     2         C         19.8471     19.4441     22.3456
     3         C         20.6781     20.6466     22.4280
     4         C         20.0001     21.9452     22.3932
     5         C         18.5051     21.9755     22.4114
     6         C         17.7882     20.7924     22.3574
     7         C         22.0789     20.6027     22.4718
     8         C         20.7194     23.1671     22.4363
     9         C         22.1399     23.1051     22.5867
    10         C         22.8551     21.8091     22.6077
    11         C         24.3043     21.8310     22.6247
    12         H         24.8527     20.9064     22.4771
    13         C         22.9175     24.3272     22.5645
    14         H         22.6203     19.6079     22.4486
    15         H         17.8419     18.6240     22.2302
    16         H         20.3533     18.4377     22.2463
    17         H         18.0098     22.9771     22.4751
    18         H         16.6812     20.9005     22.2599
    19         H         20.1850     24.1285     22.4195
    20         H         22.3463     25.2544     22.5136
    21         C         26.4819     23.0995     22.5102
    22         C         27.1758     24.2738     22.4591
    23         C         26.5073     25.5458     22.5778
    24         C         25.1299     25.5686     22.6389
    25         H         26.9982     22.1626     22.3246
    26         H         28.2781     24.2677     22.2218
    27         H         27.1115     26.4644     22.5516
    28         H         24.5578     26.5804     22.7681
    29         C         25.0703     22.9974     22.6719
    30         C         24.3425     24.3399     22.6750

           Empirical Formula: C18 H12  =    30 atoms



      MOLECULAR POINT GROUP   :   C1  


      RHF CALCULATION, NO. OF DOUBLY OCCUPIED LEVELS = 42

 WARNING: INDO only performs single-point calculations
  SCF CRITERION =    0.1000E-09

 Summary of symmetry occupancy in each shell:

 SHELL     
    1   42
    v   42
 TOTAL  84




    ROOT NO.    1           2           3           4           5           6

           -44.25056   -42.80336   -40.24496   -36.82469   -35.50794   -33.95992
  
  
  S  C   1   0.12864    -0.20191    -0.28319     0.25560    -0.02981    -0.12970
 PX  C   1   0.03490    -0.04879    -0.04976     0.01349    -0.04587    -0.08120
 PY  C   1   0.04493    -0.06745    -0.08458     0.05915     0.02832     0.04351
 PZ  C   1   0.00134    -0.00180    -0.00160    -0.00008     0.00031     0.00118
  
  S  C   2   0.16116    -0.22299    -0.23747     0.12307    -0.16019    -0.27544
 PX  C   2  -0.00486     0.02503     0.07607    -0.10962    -0.05378    -0.02777
 PY  C   2   0.06377    -0.08128    -0.06639     0.00313    -0.01831    -0.01183
 PZ  C   2   0.00218    -0.00233    -0.00050    -0.00263    -0.00180    -0.00047
  
  S  C   3   0.28198    -0.28531    -0.08280    -0.16702    -0.20243    -0.19294
 PX  C   3   0.00302     0.04601     0.14104    -0.12961    -0.08884    -0.04898
 PY  C   3   0.05715    -0.03077     0.06054    -0.10034     0.07789     0.13133
 PZ  C   3  -0.00064     0.00333     0.00802    -0.00605    -0.00002     0.00353
  
  S  C   4   0.28149    -0.28169    -0.07293    -0.17980     0.14690     0.21979
 PX  C   4   0.04998    -0.00096     0.12727    -0.15283    -0.05091    -0.07173
 PY  C   4  -0.02830     0.05567     0.08732    -0.05867     0.11808     0.12632
 PZ  C   4   0.00621    -0.00429     0.00406    -0.00855     0.00324     0.00452
  
  S  C   5   0.15620    -0.21439    -0.22360     0.10702     0.18584     0.27991
 PX  C   5   0.04839    -0.05102    -0.01046    -0.05867     0.02602     0.03641
 PY  C   5  -0.03944     0.06608     0.10038    -0.09286     0.01283     0.02401
 PZ  C   5  -0.00109     0.00236     0.00459    -0.00483    -0.00037    -0.00022
  
  S  C   6   0.12679    -0.19851    -0.27695     0.24682     0.09454     0.11108
 PX  C   6   0.05660    -0.08302    -0.09805     0.05746     0.01228     0.00727
 PY  C   6   0.00272    -0.00078     0.00950    -0.02657     0.04721     0.09853
 PZ  C   6   0.00052    -0.00047     0.00035    -0.00184     0.00099     0.00243
  
  S  C   7   0.23886    -0.14358     0.13761    -0.20773    -0.32507    -0.18461
 PX  C   7  -0.03864     0.06914     0.04209     0.08456    -0.00097     0.06414
 PY  C   7   0.07931    -0.02523     0.08508    -0.06063    -0.01020     0.03721
 PZ  C   7   0.00277     0.00078     0.00644    -0.00111    -0.00408     0.00227
  
  S  C   8   0.24122    -0.14194     0.15011    -0.23034     0.29377     0.21044
 PX  C   8   0.04750     0.01519     0.09561    -0.00853     0.01729    -0.07944
 PY  C   8  -0.07369     0.06919    -0.01215     0.10062     0.02548    -0.04731
 PZ  C   8   0.00569    -0.00122     0.00738    -0.00369     0.00652    -0.00087
  
  S  C   9   0.32056    -0.02565     0.31089    -0.01083     0.22498    -0.00542
 PX  C   9   0.01639     0.08064     0.02842     0.19011    -0.05954    -0.07952
 PY  C   9  -0.04935     0.04688    -0.03465     0.09270     0.14592    -0.02946
 PZ  C   9  -0.00844     0.00508    -0.00731     0.01187    -0.00879    -0.00448
  
  S  C  10   0.31523    -0.01985     0.30091     0.02142    -0.21689    -0.02599
 PX  C  10  -0.03335     0.08560    -0.01766     0.19487    -0.04873     0.04611
 PY  C  10   0.04577     0.04021     0.05003     0.09467     0.13453     0.02646
 PZ  C  10  -0.00963     0.00489    -0.00781     0.01081     0.00783     0.00220
  
  S  C  11   0.23013     0.13233     0.16519     0.27245    -0.28311     0.16581
 PX  C  11  -0.03988     0.03240    -0.08756    -0.00104    -0.00001     0.09223
 PY  C  11   0.06565     0.06665     0.02121     0.10148     0.02167     0.03116
 PZ  C  11  -0.00400    -0.00121    -0.00214     0.00049     0.00771    -0.00369
  
  S  H  12   0.07389     0.04393     0.04770     0.08593    -0.15225     0.09370
  
  S  C  13   0.22426     0.11513     0.17506     0.20892     0.32533    -0.19620
 PX  C  13   0.02580     0.06855    -0.03242     0.08019    -0.02244    -0.07555
 PY  C  13  -0.07268    -0.01125    -0.08609    -0.05962    -0.00530    -0.03537
 PZ  C  13   0.00315     0.00378     0.00209     0.00913     0.00356    -0.00676
  
  S  H  14   0.06868    -0.03961     0.03656    -0.04791    -0.15198    -0.08855
  
  S  H  15   0.03361    -0.05567    -0.08736     0.09508    -0.01259    -0.05721
  
  S  H  16   0.04639    -0.06261    -0.06365     0.03068    -0.08187    -0.13251
  
  S  H  17   0.04639    -0.06094    -0.05754     0.02049     0.09178     0.13877
  
  S  H  18   0.03197    -0.05262    -0.08154     0.08671     0.04062     0.05366
  
  S  H  19   0.07288    -0.04168     0.04294    -0.06255     0.15355     0.10151
  
  S  H  20   0.07126     0.03235     0.05594     0.05141     0.16652    -0.08958
  
  S  C  21   0.17395     0.27490    -0.19882    -0.08338    -0.17828     0.29419
 PX  C  21  -0.05081    -0.05980     0.00329    -0.06895     0.03078    -0.02858
 PY  C  21   0.03910     0.07756    -0.08693    -0.09885     0.03280    -0.03818
 PZ  C  21   0.00277     0.00400    -0.00142     0.00328     0.00054    -0.00233
  
  S  C  22   0.13932     0.25166    -0.24710    -0.24205    -0.05808     0.10652
 PX  C  22  -0.06040    -0.10192     0.08429     0.05425     0.00402    -0.00305
 PY  C  22  -0.00570    -0.00534    -0.00588    -0.03252     0.05662    -0.11114
 PZ  C  22   0.00471     0.00829    -0.00732    -0.00517     0.00164    -0.00363
  
  S  C  23   0.13222     0.24005    -0.23923    -0.25275     0.06950    -0.14484
 PX  C  23  -0.03242    -0.05179     0.03628     0.01226    -0.04575     0.08338
 PY  C  23  -0.04963    -0.08636     0.07718     0.06078     0.01814    -0.03799
 PZ  C  23  -0.00114    -0.00232     0.00299     0.00453     0.00259    -0.00492
  
  S  C  24   0.15486     0.24560    -0.18302    -0.12120     0.17692    -0.28891
 PX  C  24   0.01237     0.04234    -0.07422    -0.10762    -0.03703     0.02490
 PY  C  24  -0.06220    -0.09069     0.05080     0.00159    -0.02066     0.01979
 PZ  C  24  -0.00170    -0.00291     0.00292     0.00360     0.00188    -0.00303
  
  S  H  25   0.05509     0.08423    -0.05602    -0.01206    -0.09691     0.15587
  
  S  H  26   0.03527     0.06710    -0.07340    -0.08584    -0.02552     0.04944
  
  S  H  27   0.03365     0.06447    -0.07194    -0.09181     0.02809    -0.06245
  
  S  H  28   0.04145     0.06273    -0.04247    -0.02712     0.08373    -0.13126
  
  S  C  29   0.26790     0.29997    -0.03167     0.21039    -0.16826     0.20864
 PX  C  29  -0.03474     0.02460    -0.12420    -0.14641    -0.04444     0.09593
 PY  C  29   0.02761     0.06465    -0.07547    -0.07148     0.10910    -0.10957
 PZ  C  29  -0.01097    -0.01353     0.00470    -0.00367     0.01128    -0.01582
  
  S  C  30   0.25688     0.28460    -0.02855     0.16428     0.18798    -0.21943
 PX  C  30   0.00650     0.07055    -0.13012    -0.12203    -0.08082     0.05631
 PY  C  30  -0.05012    -0.02288    -0.06111    -0.10791     0.08338    -0.12261
 PZ  C  30  -0.00871    -0.00918     0.00058    -0.00458    -0.00590     0.00504




    ROOT NO.    7           8           9          10          11          12

           -31.69167   -31.26907   -28.84492   -28.18420   -26.74103   -26.02613
  
  
  S  C   1   0.13149     0.28468     0.17729     0.26858    -0.04048    -0.16914
 PX  C   1   0.11689    -0.06040     0.11403    -0.15575     0.02023    -0.07346
 PY  C   1  -0.07757     0.00535    -0.10163    -0.02213    -0.05781     0.11791
 PZ  C   1  -0.00188    -0.00463    -0.00380    -0.00841    -0.00199     0.00572
  
  S  C   2   0.28730     0.00552     0.18497    -0.12483     0.10967    -0.05328
 PX  C   2  -0.00902    -0.14736    -0.12476    -0.12985     0.08782     0.17151
 PY  C   2  -0.00613    -0.08176    -0.06109    -0.10518    -0.08029     0.10755
 PZ  C   2  -0.00191    -0.00672    -0.00721    -0.00711    -0.00239     0.00957
  
  S  C   3   0.11545    -0.23814    -0.09946    -0.14366    -0.06576     0.19057
 PX  C   3  -0.05760     0.02495    -0.14120     0.15607     0.09743     0.05889
 PY  C   3  -0.08887    -0.02232     0.01264     0.09667    -0.20276    -0.06821
 PZ  C   3  -0.00812     0.00451    -0.00648     0.01180    -0.00064    -0.00254
  
  S  C   4  -0.04205    -0.25226     0.13444    -0.10527    -0.12506    -0.16917
 PX  C   4   0.10232     0.02819     0.03517     0.16662    -0.10486     0.08244
 PY  C   4  -0.01055     0.03776     0.11832     0.10222     0.15423    -0.14301
 PZ  C   4  -0.00007    -0.00166     0.00260     0.00488    -0.00447    -0.00170
  
  S  C   5  -0.28340    -0.08884    -0.16123    -0.15158     0.12057    -0.00842
 PX  C   5   0.05251    -0.12667     0.15493    -0.11382    -0.06051    -0.18781
 PY  C   5   0.03196    -0.06432     0.08752    -0.02421     0.09102    -0.12645
 PZ  C   5   0.00268    -0.00323     0.00417    -0.00174     0.00141    -0.00483
  
  S  C   6  -0.21622     0.21405    -0.23773     0.20808     0.00733     0.20692
 PX  C   6   0.00393    -0.02221     0.03670    -0.08613    -0.05096    -0.05663
 PY  C   6  -0.12190    -0.10000    -0.13217    -0.14797     0.07729     0.09266
 PZ  C   6  -0.00186    -0.00642    -0.00120    -0.01056     0.00057    -0.00037
  
  S  C   7  -0.14287    -0.01807    -0.24236     0.11156     0.20598    -0.01208
 PX  C   7  -0.13538     0.13254     0.05006     0.03374     0.08988    -0.21136
 PY  C   7  -0.07695     0.07337     0.01038     0.10091    -0.16529    -0.07935
 PZ  C   7  -0.01268     0.01011    -0.00129     0.00840    -0.00150    -0.01548
  
  S  C   8   0.15173     0.02867     0.23237     0.13627     0.17410    -0.02724
 PX  C   8   0.09750     0.16071    -0.06524     0.07414    -0.04860     0.21674
 PY  C   8   0.05310     0.07951    -0.03373    -0.04776     0.18935     0.08417
 PZ  C   8   0.00781     0.01129    -0.00123     0.00648     0.00005     0.01405
  
  S  C   9   0.16150     0.27204    -0.00943     0.00086    -0.08068     0.18695
 PX  C   9  -0.07743     0.01179    -0.09709    -0.18310    -0.12439    -0.05887
 PY  C   9   0.13898    -0.00769    -0.04225    -0.11147     0.22587     0.09515
 PZ  C   9  -0.00981    -0.00672    -0.00562    -0.01223    -0.00891    -0.00995
  
  S  C  10  -0.25612     0.22533    -0.01373     0.01787    -0.09322    -0.18687
 PX  C  10  -0.07090    -0.01257     0.12305    -0.17308     0.10794    -0.07960
 PY  C  10   0.10665     0.04599     0.05942    -0.09827    -0.22115     0.12238
 PZ  C  10   0.00517    -0.00443     0.00678    -0.01265    -0.00474     0.00301
  
  S  C  11  -0.17192     0.00399     0.25556    -0.11624     0.16606    -0.00187
 PX  C  11   0.13402    -0.13489     0.05638     0.07466     0.08836     0.20363
 PY  C  11   0.06576    -0.06529     0.02700    -0.03827    -0.17446     0.11912
 PZ  C  11   0.00361    -0.00319    -0.00071    -0.00379    -0.01524     0.00514
  
  S  H  12  -0.07597    -0.00427     0.12526    -0.01594     0.21207    -0.00198
  
  S  C  13   0.16435     0.01350    -0.22544    -0.15338     0.16469    -0.02343
 PX  C  13  -0.09348    -0.16754    -0.05138     0.01375    -0.13285    -0.19167
 PY  C  13  -0.03622    -0.10160    -0.03043     0.08589     0.14930    -0.11263
 PZ  C  13  -0.00265    -0.00677    -0.00577    -0.00594    -0.00790    -0.00928
  
  S  H  14  -0.06469    -0.00921    -0.10261     0.01143     0.22264    -0.02609
  
  S  H  15   0.06255     0.15761     0.09873     0.19841    -0.00001    -0.11905
  
  S  H  16   0.13589     0.00619     0.08586    -0.04014     0.12662    -0.03888
  
  S  H  17  -0.13128    -0.04345    -0.06911    -0.05760     0.13186    -0.02430
  
  S  H  18  -0.11238     0.11064    -0.14461     0.14412     0.03819     0.14347
  
  S  H  19   0.07207     0.00824     0.11111     0.02088     0.21169    -0.03439
  
  S  H  20   0.09095     0.00664    -0.10545    -0.03635     0.21301    -0.00932
  
  S  C  21   0.28080     0.01281    -0.18535     0.11034     0.09175    -0.03956
 PX  C  21   0.00941     0.15066    -0.11976    -0.14088     0.03007    -0.19134
 PY  C  21  -0.00765     0.08048    -0.07359    -0.04835    -0.11431    -0.11218
 PZ  C  21  -0.00500    -0.01440     0.01412     0.01551    -0.00948     0.02133
  
  S  C  22   0.10375     0.29411    -0.16955    -0.25368    -0.03835    -0.18948
 PX  C  22   0.00168     0.02810    -0.01879    -0.09472     0.03801    -0.05440
 PY  C  22  -0.14944     0.05529     0.15896    -0.11632    -0.04368     0.12597
 PZ  C  22  -0.00529    -0.00486     0.00905     0.01202    -0.00660     0.01460
  
  S  C  23  -0.22125     0.21873     0.22931    -0.20209     0.00975     0.20082
 PX  C  23   0.08185     0.10861    -0.07940    -0.17685    -0.03837    -0.05578
 PY  C  23  -0.05498    -0.03990     0.09267     0.00945     0.07790     0.10713
 PZ  C  23  -0.00474    -0.01362     0.00689     0.01907     0.00424     0.00752
  
  S  C  24  -0.25244    -0.11973     0.15369     0.17065     0.12398     0.01967
 PX  C  24  -0.06312     0.13613     0.14474    -0.08483    -0.04458     0.19409
 PY  C  24  -0.02419     0.07708     0.07561    -0.08011     0.08813     0.09832
 PZ  C  24  -0.00144    -0.00838    -0.00038     0.00977     0.00463    -0.00412
  
  S  H  25   0.14221     0.00893    -0.08572     0.03850     0.12262    -0.01863
  
  S  H  26   0.05156     0.15606    -0.09457    -0.17828     0.00402    -0.12855
  
  S  H  27  -0.10859     0.12148     0.13331    -0.15258     0.03066     0.13763
  
  S  H  28  -0.10883    -0.05567     0.06564     0.06461     0.12347     0.00249
  
  S  C  29   0.10297    -0.22291     0.10759     0.10858    -0.07735     0.19435
 PX  C  29   0.11619     0.00258    -0.07222     0.15808     0.11430     0.04344
 PY  C  29   0.01487    -0.04260    -0.13323     0.08181    -0.17145    -0.10482
 PZ  C  29  -0.01136     0.00457     0.00171    -0.00769    -0.00920    -0.00631
  
  S  C  30  -0.03116    -0.28039    -0.12494     0.10895    -0.10390    -0.18265
 PX  C  30  -0.04903    -0.03771     0.11209     0.16848    -0.06531     0.07675
 PY  C  30  -0.07644    -0.02063    -0.02126     0.09808     0.17738    -0.11171
 PZ  C  30  -0.00289     0.00433     0.00824     0.00116    -0.00139     0.00647




    ROOT NO.   13          14          15          16          17          18

           -25.03503   -23.93741   -22.68688   -21.57340   -20.57600   -19.37766
  
  
  S  C   1  -0.02697     0.13743    -0.00585    -0.15444    -0.04463     0.03407
 PX  C   1   0.04194    -0.23955     0.01741     0.01408     0.23589    -0.18651
 PY  C   1  -0.13277    -0.01867    -0.19962     0.09680    -0.12547    -0.22623
 PZ  C   1  -0.00579    -0.00984    -0.01161     0.00600     0.00012    -0.02371
  
  S  C   2   0.17089    -0.18061     0.12537     0.12185     0.12159    -0.05078
 PX  C   2   0.08954     0.02661     0.05358     0.16990    -0.14929     0.11869
 PY  C   2  -0.16403    -0.01608    -0.20757     0.05744    -0.15305    -0.08618
 PZ  C   2  -0.00783    -0.00028    -0.01356     0.00385    -0.01335    -0.01089
  
  S  C   3  -0.09522     0.09055    -0.01626     0.09804    -0.07585     0.15088
 PX  C   3   0.14109     0.16999     0.14247    -0.09277    -0.02026     0.04354
 PY  C   3  -0.20549     0.08572    -0.01732    -0.11206     0.15026     0.10428
 PZ  C   3   0.00154     0.00453     0.00345    -0.01357     0.00572    -0.00810
  
  S  C   4  -0.12552     0.09604    -0.01580    -0.09138    -0.04466     0.14447
 PX  C   4  -0.07711     0.14646     0.07211     0.18349     0.10145     0.04846
 PY  C   4   0.21734     0.08544     0.13035     0.01567    -0.08718    -0.06025
 PZ  C   4  -0.00148     0.00046     0.00488    -0.00188     0.00876    -0.00246
  
  S  C   5   0.16429    -0.16307     0.12212    -0.12643     0.12004     0.02470
 PX  C   5  -0.09977     0.01367    -0.13538    -0.17695    -0.17791     0.01834
 PY  C   5   0.15416     0.03980     0.16080    -0.09579    -0.02719     0.19065
 PZ  C   5   0.00397    -0.00135     0.00585    -0.00601     0.00409     0.00439
  
  S  C   6  -0.01165     0.11624    -0.01058     0.16916    -0.05625    -0.04188
 PX  C   6  -0.09630    -0.12638    -0.15785    -0.12879     0.01734    -0.21586
 PY  C   6   0.11558    -0.18664     0.12321     0.06552     0.24923    -0.03033
 PZ  C   6   0.00030    -0.01425    -0.00247    -0.00538     0.01220    -0.01498
  
  S  C   7   0.12208     0.11163    -0.07351    -0.21015    -0.05890    -0.12494
 PX  C   7   0.00288    -0.14298    -0.16727    -0.09446     0.04850    -0.17886
 PY  C   7  -0.11880    -0.07860     0.04570    -0.02367     0.22296     0.00458
 PZ  C   7  -0.00296    -0.01216    -0.00649    -0.01121     0.01348    -0.01672
  
  S  C   8   0.12158     0.09448    -0.07099     0.19698    -0.08436    -0.17637
 PX  C   8  -0.07907    -0.14428    -0.05387     0.07676     0.19188    -0.04916
 PY  C   8   0.07633    -0.07233    -0.16773     0.02568    -0.10657    -0.12200
 PZ  C   8  -0.00174    -0.01340    -0.00309     0.00532     0.01499    -0.01056
  
  S  C   9   0.01601    -0.22596     0.03457     0.00763     0.00185     0.00567
 PX  C   9   0.01559    -0.05124     0.10758    -0.17758    -0.16723     0.14809
 PY  C   9   0.00310     0.06310    -0.20666    -0.08889    -0.07927     0.09578
 PZ  C   9   0.00203    -0.00066     0.01247    -0.01159    -0.01385     0.00412
  
  S  C  10   0.00046    -0.22546     0.01558    -0.01542     0.00299    -0.02926
 PX  C  10   0.00461     0.02085    -0.12265     0.16422    -0.17971     0.13554
 PY  C  10   0.02118    -0.08147     0.20882     0.09911    -0.11410     0.08514
 PZ  C  10   0.00399     0.00040     0.00570     0.01114    -0.01763     0.00495
  
  S  C  11  -0.12404     0.08608    -0.07071     0.22191     0.04545     0.15294
 PX  C  11  -0.08481     0.16055     0.06166    -0.04065     0.19174    -0.03917
 PY  C  11   0.09747     0.07837     0.16074    -0.05552    -0.11384    -0.12584
 PZ  C  11   0.01176     0.00563     0.00988     0.00017    -0.01432    -0.01222
  
  S  H  12  -0.14785     0.05164    -0.10509     0.12507     0.15562     0.14218
  
  S  C  13  -0.13155     0.10216    -0.05341    -0.20183     0.07767     0.14980
 PX  C  13   0.01000     0.15823     0.17577     0.06856     0.00412    -0.17477
 PY  C  13  -0.12974     0.09671    -0.04082     0.03009     0.21310     0.00439
 PZ  C  13   0.00017     0.00835     0.01482    -0.00020    -0.00954    -0.01216
  
  S  H  14   0.12845     0.05649    -0.11406    -0.11411    -0.14411    -0.12520
  
  S  H  15   0.03763     0.17176     0.09850    -0.14122    -0.04971     0.23937
  
  S  H  16   0.20558    -0.07267     0.19972     0.07354     0.10800     0.06601
  
  S  H  17   0.20135    -0.06285     0.19399    -0.06572     0.09484     0.12446
  
  S  H  18   0.06036     0.12918     0.10673     0.18103    -0.02632     0.13773
  
  S  H  19   0.13022     0.05329    -0.11386     0.08419    -0.16695    -0.14596
  
  S  H  20  -0.14002     0.05323    -0.11324    -0.10391     0.15812     0.14152
  
  S  C  21  -0.14273    -0.17507     0.10761    -0.12278    -0.10463     0.00454
 PX  C  21  -0.12222    -0.01187     0.13674     0.16212    -0.18974     0.02114
 PY  C  21   0.16505    -0.01978    -0.17583     0.12539    -0.02661     0.16596
 PZ  C  21   0.02611     0.00056    -0.03136    -0.01729     0.02802     0.00896
  
  S  C  22   0.00379     0.14030    -0.01190     0.17359     0.04041     0.01360
 PX  C  22  -0.10728     0.13563     0.16407     0.09216     0.00179    -0.22762
 PY  C  22   0.10063     0.19454    -0.09991    -0.05500     0.24154    -0.04241
 PZ  C  22   0.01959    -0.01477    -0.02898    -0.02115     0.00918     0.03422
  
  S  C  23   0.00714     0.11301     0.01684    -0.17317     0.04340    -0.01234
 PX  C  23   0.03131     0.25027    -0.00006    -0.01963     0.20998    -0.18038
 PY  C  23  -0.13605    -0.00633     0.20605    -0.14596    -0.12525    -0.19246
 PZ  C  23  -0.00418    -0.02430     0.00373    -0.00499    -0.02213     0.00880
  
  S  C  24  -0.17004    -0.19192     0.11858     0.12266    -0.12682     0.02237
 PX  C  24   0.09348    -0.05014    -0.06212    -0.17424    -0.11373     0.15108
 PY  C  24  -0.15645    -0.00968     0.19924    -0.09764    -0.15302    -0.06824
 PZ  C  24  -0.00879    -0.00814     0.01068     0.01139    -0.00863    -0.01390
  
  S  H  25  -0.20771    -0.08157     0.20156    -0.07607    -0.10117    -0.09034
  
  S  H  26  -0.06600     0.15778     0.10528     0.15425     0.02077    -0.16656
  
  S  H  27  -0.05556     0.14410     0.12288    -0.18220     0.03175    -0.20227
  
  S  H  28  -0.19908    -0.08306     0.18949     0.05708    -0.11322    -0.08144
  
  S  C  29   0.12563     0.10588    -0.01190    -0.10158     0.05671    -0.13204
 PX  C  29  -0.08231    -0.16193    -0.05578    -0.16950     0.11609     0.04961
 PY  C  29   0.22452    -0.07657    -0.13388    -0.04151    -0.06854    -0.05102
 PZ  C  29   0.01104     0.00638    -0.00420     0.01459    -0.00696    -0.00518
  
  S  C  30   0.09484     0.11944    -0.00697     0.09652     0.05651    -0.15624
 PX  C  30   0.15160    -0.15946    -0.15879     0.10469    -0.01027     0.02487
 PY  C  30  -0.20873    -0.08980     0.02086     0.14638     0.12496     0.07232
 PZ  C  30   0.00262    -0.00589     0.00217     0.00658    -0.01041    -0.00969




    ROOT NO.   19          20          21          22          23          24

           -18.37585   -17.25367   -16.92687   -16.45747   -16.14982   -15.18567
  
  
  S  C   1  -0.14930     0.00965     0.06744    -0.08466     0.03980     0.06180
 PX  C   1   0.04775    -0.19415     0.00606    -0.01314     0.17453     0.08982
 PY  C   1   0.09412     0.16274    -0.03779     0.07447     0.19813     0.11745
 PZ  C   1   0.00148     0.00846     0.00813    -0.00456     0.03007     0.04216
  
  S  C   2   0.15265     0.01018    -0.02112     0.06102     0.01317     0.03615
 PX  C   2   0.12240     0.21110    -0.04952     0.08337    -0.17642    -0.08323
 PY  C   2  -0.03379     0.12446     0.19664    -0.15232    -0.02436     0.25746
 PZ  C   2  -0.00902     0.01817     0.02697    -0.01837     0.01189     0.05444
  
  S  C   3  -0.01592    -0.01314     0.19082    -0.11281    -0.07128     0.00523
 PX  C   3  -0.16823     0.00913     0.02774    -0.01941     0.23790    -0.11374
 PY  C   3  -0.03134    -0.27903    -0.04916     0.00839    -0.05409    -0.14170
 PZ  C   3  -0.01955     0.00531     0.02046    -0.00392     0.02241     0.03171
  
  S  C   4   0.08127    -0.05107    -0.18778     0.11904    -0.09829    -0.04326
 PX  C   4   0.15022    -0.19510     0.02582    -0.06728     0.06508     0.13975
 PY  C   4   0.09013     0.15878    -0.12460     0.08469     0.20401     0.13349
 PZ  C   4  -0.01281     0.00695     0.00904    -0.00757     0.00384     0.04593
  
  S  C   5  -0.18704     0.01813     0.02593    -0.06382    -0.00778    -0.00582
 PX  C   5  -0.02859     0.17484    -0.12913     0.15276    -0.09357    -0.13573
 PY  C   5  -0.07642     0.11008     0.18600    -0.11507    -0.11257     0.27899
 PZ  C   5  -0.01549     0.00723     0.02010    -0.01829     0.00198     0.04788
  
  S  C   6   0.16050     0.01027    -0.07787     0.09117     0.05390    -0.04265
 PX  C   6  -0.21559     0.04540    -0.01204    -0.06263     0.21395    -0.05735
 PY  C   6   0.00364    -0.23903    -0.03489    -0.02774     0.00956    -0.14887
 PZ  C   6  -0.01956    -0.00259     0.00906    -0.01594     0.02262     0.02461
  
  S  C   7  -0.12105    -0.05859    -0.05910     0.02803     0.07469    -0.02144
 PX  C   7   0.12688    -0.05865    -0.15812     0.09206    -0.17521     0.08815
 PY  C   7   0.10155    -0.05033     0.29285     0.00509     0.02188    -0.11919
 PZ  C   7   0.00590     0.00310     0.03106     0.01226     0.00028     0.02276
  
  S  C   8   0.08277    -0.03670     0.03620    -0.05570     0.06677     0.00545
 PX  C   8  -0.18440    -0.06281    -0.13404    -0.08338    -0.16465     0.08806
 PY  C   8  -0.07710    -0.01337     0.32732    -0.09654    -0.05734    -0.24304
 PZ  C   8  -0.02646     0.00848    -0.00318    -0.00973    -0.01556     0.04205
  
  S  C   9  -0.15516     0.13858    -0.16413    -0.05073    -0.09159     0.04734
 PX  C   9   0.05180     0.12567     0.03624     0.07330     0.07615    -0.09804
 PY  C   9  -0.05827    -0.21890    -0.07916    -0.04719    -0.14113    -0.03379
 PZ  C   9  -0.00100     0.02279     0.01550     0.01457     0.00677     0.02865
  
  S  C  10   0.14361     0.11246     0.18667     0.08302    -0.04084    -0.05278
 PX  C  10   0.09399    -0.11558     0.03006    -0.04283    -0.11350     0.01307
 PY  C  10  -0.07118     0.23725    -0.06412    -0.00461     0.09418     0.02557
 PZ  C  10  -0.00535     0.01190     0.02132     0.01836     0.00307     0.03065
  
  S  C  11  -0.06441    -0.03564    -0.00834    -0.04834     0.06308     0.01573
 PX  C  11  -0.20660     0.05911    -0.13699    -0.01754     0.15773     0.01190
 PY  C  11  -0.09720    -0.05737     0.13530     0.25337     0.12310    -0.11368
 PZ  C  11  -0.01375    -0.01272     0.03354     0.05141     0.00679     0.01960
  
  S  H  12  -0.04479     0.04790    -0.17534    -0.23153     0.01044     0.09217
  
  S  C  13   0.11363    -0.03945    -0.01509     0.04825     0.09456     0.02763
 PX  C  13   0.12690     0.05002    -0.07694    -0.21502     0.14401     0.08056
 PY  C  13   0.11603     0.02578     0.19615     0.18718     0.10250     0.03112
 PZ  C  13  -0.00126     0.00420    -0.00793    -0.00929    -0.00264     0.03577
  
  S  H  14  -0.08033    -0.01822    -0.32398     0.04553    -0.04803     0.11811
  
  S  H  15  -0.15882    -0.01212     0.05695    -0.08846    -0.20819    -0.10109
  
  S  H  16   0.14001    -0.00855    -0.19066     0.18219    -0.04485    -0.22356
  
  S  H  17  -0.13836     0.02848     0.21589    -0.18247    -0.04771     0.27016
  
  S  H  18   0.25249    -0.04820    -0.02889     0.09626    -0.15504     0.02102
  
  S  H  19   0.05742    -0.00585     0.32846    -0.06402     0.06611    -0.21353
  
  S  H  20   0.08304    -0.03108     0.18241     0.26044     0.06424    -0.00513
  
  S  C  21   0.15505     0.01976     0.01340    -0.06010    -0.00302     0.03112
 PX  C  21  -0.04070    -0.18038    -0.05947    -0.18359     0.14311    -0.08324
 PY  C  21  -0.06992    -0.15191     0.02452     0.15687     0.11210     0.26507
 PZ  C  21   0.00180     0.01822     0.02159     0.06400    -0.01684     0.07970
  
  S  C  22  -0.15072    -0.01183     0.00512     0.11933     0.03841     0.04511
 PX  C  22  -0.17371    -0.04606     0.01410     0.07218    -0.22516    -0.10765
 PY  C  22  -0.00137     0.26382     0.00132     0.01688    -0.04493    -0.14240
 PZ  C  22   0.03430     0.01823     0.00625     0.00505     0.03008     0.06278
  
  S  C  23   0.14825     0.02553    -0.01358    -0.11218     0.05531    -0.03267
 PX  C  23   0.06313     0.19330     0.05383     0.00348    -0.19813     0.09355
 PY  C  23   0.12246    -0.16584     0.02613    -0.09414    -0.17178     0.08759
 PZ  C  23   0.00212    -0.02188     0.00269     0.00801    -0.00103     0.03751
  
  S  C  24  -0.16115    -0.00535    -0.01022     0.07825    -0.01279    -0.04592
 PX  C  24   0.11083    -0.18666    -0.05569    -0.09905     0.22173    -0.07862
 PY  C  24  -0.01928    -0.16873     0.05409     0.22831     0.01694     0.23073
 PZ  C  24  -0.02062    -0.00331     0.01036     0.03223    -0.03683     0.04642
  
  S  H  25   0.10813     0.04823    -0.04519    -0.23915    -0.01993    -0.23525
  
  S  H  26  -0.21580    -0.04654     0.01234     0.11779    -0.17738    -0.08395
  
  S  H  27   0.18449    -0.01301     0.03624    -0.12264    -0.18912     0.09312
  
  S  H  28  -0.13266    -0.04740     0.06495     0.26414    -0.08559     0.19966
  
  S  C  29  -0.06611    -0.06796     0.08217     0.20562    -0.06687     0.03874
 PX  C  29   0.15131     0.23567     0.02289     0.04869    -0.11540     0.08560
 PY  C  29   0.12194    -0.13502    -0.00498    -0.11119    -0.21635     0.07042
 PZ  C  29  -0.01948    -0.02409     0.01627     0.03294    -0.00917     0.04180
  
  S  C  30   0.02932    -0.00511    -0.06030    -0.22037    -0.08814    -0.03583
 PX  C  30  -0.15639    -0.01515     0.04819     0.07672    -0.21942    -0.11254
 PY  C  30  -0.06070     0.28944    -0.01442    -0.03437     0.01686    -0.10777
 PZ  C  30  -0.02136    -0.01253     0.01129     0.02795    -0.03200     0.03774




    ROOT NO.   25          26          27          28          29          30

           -14.89170   -14.77816   -14.68674   -14.47270   -13.87190   -13.45132
  
  
  S  C   1   0.00131     0.02506    -0.03763    -0.02218     0.04960     0.00456
 PX  C   1  -0.26485    -0.04651    -0.08978     0.03516     0.17501    -0.04850
 PY  C   1  -0.01480     0.06176     0.21661    -0.01941     0.14551    -0.06762
 PZ  C   1   0.00502     0.02898     0.01288     0.12819     0.03564     0.22374
  
  S  C   2  -0.05412     0.01237     0.08914     0.01825    -0.01659    -0.01184
 PX  C   2   0.23226     0.04884     0.14701    -0.02469    -0.20469     0.03560
 PY  C   2  -0.16180     0.09386    -0.03892    -0.04159    -0.09015    -0.01527
 PZ  C   2   0.00626     0.03735     0.00032     0.16638     0.01381     0.24943
  
  S  C   3   0.00044    -0.02756    -0.03920     0.00019     0.00959     0.02456
 PX  C   3   0.14619    -0.07980     0.01781    -0.03081     0.29098    -0.02515
 PY  C   3  -0.05149    -0.09509    -0.11410     0.03619     0.04285    -0.01127
 PZ  C   3   0.04121     0.03542     0.00650     0.28268     0.02399     0.29575
  
  S  C   4  -0.04916    -0.00042    -0.02718     0.01987     0.02561    -0.00698
 PX  C   4  -0.09972     0.03894    -0.14147    -0.04038     0.12859     0.04646
 PY  C   4   0.02378     0.08210     0.07144    -0.04086     0.19158     0.01669
 PZ  C   4   0.04465     0.04788     0.00522     0.27133     0.00220     0.28567
  
  S  C   5   0.11365     0.03318     0.00793    -0.02986    -0.03508     0.00204
 PX  C   5   0.03578    -0.03547     0.15191     0.06105    -0.09460    -0.05149
 PY  C   5  -0.19962     0.12550     0.15212    -0.00546    -0.03053    -0.08362
 PZ  C   5   0.01972     0.03992     0.00963     0.15325     0.00747     0.22975
  
  S  C   6   0.00477    -0.02558     0.03634     0.01768     0.05490     0.00800
 PX  C   6   0.30053     0.02231    -0.02563    -0.09829     0.09173     0.04279
 PY  C   6   0.04103    -0.09715    -0.24742    -0.00476    -0.01279     0.06334
 PZ  C   6   0.03907     0.02730    -0.00672     0.11522     0.02205     0.22728
  
  S  C   7  -0.06756    -0.01747    -0.01176     0.01238     0.00182    -0.03006
 PX  C   7  -0.17890     0.07090     0.01290     0.02267    -0.28828    -0.01412
 PY  C   7   0.01658    -0.11489     0.31557     0.02890    -0.06440    -0.04343
 PZ  C   7   0.03045     0.03053     0.01789     0.26648    -0.00841     0.15693
  
  S  C   8   0.03559    -0.01278    -0.06684    -0.02315    -0.03469     0.02540
 PX  C   8   0.15026     0.17387     0.00204    -0.05423    -0.19816    -0.03148
 PY  C   8  -0.00247    -0.20496    -0.00620     0.05296    -0.16775    -0.02320
 PZ  C   8   0.05680     0.04769    -0.00160     0.25184    -0.01982     0.14860
  
  S  C   9  -0.01173    -0.02883     0.00787     0.02524    -0.00658    -0.01853
 PX  C   9  -0.18805    -0.21177     0.01314     0.02070     0.20484    -0.00430
 PY  C   9  -0.09737    -0.09500     0.02888     0.05108     0.12469    -0.00415
 PZ  C   9   0.04170     0.01318    -0.02179     0.32112     0.02864     0.02781
  
  S  C  10   0.01519     0.03180     0.00898     0.00206    -0.02022     0.01247
 PX  C  10   0.10179     0.11379    -0.26181    -0.08076     0.19679     0.06338
 PY  C  10   0.04342     0.01548    -0.16861    -0.06044     0.10540     0.01435
 PZ  C  10   0.06265     0.04721    -0.04916     0.31452     0.03217     0.02644
  
  S  C  11   0.08182     0.02014    -0.02038    -0.00177     0.03344    -0.01825
 PX  C  11  -0.09229    -0.12015     0.23068     0.07526    -0.18025    -0.07579
 PY  C  11  -0.08462     0.22838    -0.18009    -0.01855    -0.17613    -0.03788
 PZ  C  11   0.05000     0.05472    -0.05698     0.24572     0.00837    -0.14096
  
  S  H  12   0.04889    -0.22076     0.22670     0.01914     0.07328     0.00339
  
  S  C  13  -0.04034    -0.00661     0.04979     0.00163     0.02266     0.02207
 PX  C  13   0.04164    -0.14652    -0.04071    -0.00569    -0.26597     0.05639
 PY  C  13   0.17327     0.31092    -0.01746    -0.06387    -0.08371    -0.00645
 PZ  C  13   0.03731    -0.02029    -0.02595     0.24453     0.01644    -0.11415
  
  S  H  14  -0.11455     0.10590    -0.24122    -0.01182    -0.07400     0.01216
  
  S  H  15   0.14431    -0.01046    -0.13536    -0.02525    -0.18772     0.06195
  
  S  H  16   0.19727    -0.04911     0.12934     0.01881    -0.02818     0.00179
  
  S  H  17  -0.11916     0.12659     0.06720    -0.03524    -0.00763    -0.03699
  
  S  H  18  -0.27422    -0.04204     0.02404     0.08995    -0.06171    -0.05223
  
  S  H  19  -0.04936    -0.22821    -0.03395     0.04572    -0.06406     0.00277
  
  S  H  20   0.09013     0.28827     0.02354    -0.05852     0.06693    -0.01260
  
  S  C  21   0.05687    -0.02301    -0.08972    -0.00692     0.00718    -0.00337
 PX  C  21   0.05908     0.16714     0.02784     0.07001    -0.10834    -0.15878
 PY  C  21   0.19848    -0.16738     0.05808    -0.06091    -0.08272     0.00380
 PZ  C  21   0.06189    -0.05780    -0.04704     0.15532     0.03072    -0.24485
  
  S  C  22  -0.02436    -0.06498     0.00727     0.00326    -0.04885     0.00233
 PX  C  22  -0.12514     0.09494     0.19830     0.01885     0.18111     0.02476
 PY  C  22  -0.19583    -0.00790    -0.15501     0.02829     0.00913     0.04993
 PZ  C  22   0.07246    -0.04727    -0.08632     0.12941    -0.01297    -0.26093
  
  S  C  23   0.01740     0.05345    -0.02646     0.01758    -0.04289    -0.02577
 PX  C  23   0.13141    -0.12943    -0.20989    -0.02469     0.06334    -0.05842
 PY  C  23   0.19954     0.05155     0.14776    -0.04954     0.12184    -0.02185
 PZ  C  23   0.04860    -0.01552    -0.01809     0.12516     0.02715    -0.24257
  
  S  C  24  -0.09134    -0.01652    -0.00188     0.00495     0.02860     0.01702
 PX  C  24  -0.07705     0.15090     0.19924     0.04317    -0.09155     0.02201
 PY  C  24   0.04687    -0.23028    -0.00676    -0.04387    -0.11335     0.08768
 PZ  C  24   0.04814    -0.03716    -0.03986     0.15202     0.04875    -0.24475
  
  S  H  25  -0.10983     0.19374    -0.06339     0.05186     0.02212    -0.03786
  
  S  H  26  -0.13651     0.06210     0.20197    -0.00697     0.15076     0.07778
  
  S  H  27   0.22478     0.00480    -0.00336    -0.04503     0.11015    -0.05597
  
  S  H  28   0.03530    -0.25568    -0.10293    -0.04054    -0.02907     0.04833
  
  S  C  29  -0.00968     0.03234     0.03703    -0.00308    -0.02196    -0.00214
 PX  C  29  -0.01487    -0.19222    -0.08243    -0.01913     0.12677     0.09067
 PY  C  29   0.10230    -0.04160     0.13441    -0.04038     0.18755     0.05465
 PZ  C  29   0.06930     0.02017    -0.03329     0.25853     0.03343    -0.28914
  
  S  C  30   0.04719     0.01834     0.06021     0.03072    -0.00008    -0.04097
 PX  C  30  -0.00480     0.16759     0.05166    -0.02138     0.25850    -0.05261
 PY  C  30  -0.05734     0.02562    -0.16368     0.02426     0.03168    -0.05139
 PZ  C  30   0.05588    -0.00160    -0.03180     0.24812     0.05813    -0.26969




    ROOT NO.   31          32          33          34          35          36

           -13.09810   -12.96975   -12.13770   -11.84406   -11.63679   -11.50612
  
  
  S  C   1  -0.00978     0.00886     0.00200    -0.00329    -0.00140     0.00802
 PX  C   1   0.16273    -0.09639    -0.10445    -0.07239    -0.02220     0.12783
 PY  C   1  -0.18101    -0.19645     0.19710    -0.06105    -0.03834     0.03060
 PZ  C   1   0.00325    -0.08018     0.00301     0.32217     0.01464     0.10609
  
  S  C   2  -0.01087    -0.01777    -0.03789     0.01498     0.02324    -0.02639
 PX  C   2  -0.15132     0.10615     0.06046     0.07476     0.03784    -0.15165
 PY  C   2   0.10833     0.18818    -0.22931     0.02544     0.06795    -0.10086
 PZ  C   2   0.03522    -0.04937    -0.05364     0.25560     0.03170     0.06886
  
  S  C   3  -0.01173     0.03091    -0.00302    -0.00343     0.00650     0.00492
 PX  C   3   0.00930    -0.11470    -0.14113    -0.10273     0.00766     0.18872
 PY  C   3  -0.04092    -0.15299     0.32186    -0.03492    -0.11311     0.07383
 PZ  C   3   0.04100    -0.07698    -0.03825     0.06705     0.01922     0.02253
  
  S  C   4   0.02139    -0.03314     0.01121     0.00856     0.00280    -0.01141
 PX  C   4  -0.15756     0.11700     0.22326     0.08417     0.00977    -0.23994
 PY  C   4  -0.01310     0.10924    -0.27624     0.03824     0.12374    -0.11617
 PZ  C   4   0.02090    -0.07441     0.01537     0.04722    -0.02952     0.02611
  
  S  C   5  -0.02581     0.01010    -0.03737    -0.01445     0.00763     0.03473
 PX  C   5   0.15955    -0.15511    -0.19263    -0.07705    -0.01846     0.23238
 PY  C   5  -0.08601    -0.17801     0.14536    -0.05691    -0.04262     0.06915
 PZ  C   5  -0.01315    -0.07568     0.05264     0.22659    -0.01920     0.07182
  
  S  C   6  -0.01975    -0.02706     0.02341     0.01226    -0.00008    -0.01031
 PX  C   6  -0.20904     0.12304     0.13117     0.03072     0.02217    -0.15951
 PY  C   6   0.14302     0.22456    -0.17423     0.04404     0.04609    -0.08822
 PZ  C   6  -0.01846    -0.05068     0.03752     0.32048     0.00143     0.07875
  
  S  C   7   0.02388    -0.06145    -0.04080    -0.00119     0.03577     0.00488
 PX  C   7  -0.01941     0.06432     0.12200     0.10467     0.01297    -0.18895
 PY  C   7  -0.13859    -0.06286    -0.17875     0.03917     0.15119    -0.08810
 PZ  C   7   0.01648    -0.01571    -0.03160    -0.11848     0.04682    -0.08763
  
  S  C   8  -0.03883     0.06262    -0.02633    -0.00046     0.03628     0.01065
 PX  C   8  -0.07658    -0.11125    -0.08425    -0.09570     0.01884     0.25035
 PY  C   8   0.10534    -0.07319     0.15941    -0.03133    -0.11350     0.12280
 PZ  C   8   0.01300    -0.03122     0.01284    -0.16711    -0.04673    -0.02176
  
  S  C   9   0.06018    -0.02877     0.00189    -0.02478    -0.00817     0.00610
 PX  C   9   0.11050     0.05998     0.10758     0.13614    -0.02929    -0.23341
 PY  C   9  -0.22854    -0.14327    -0.11004     0.00030     0.26295    -0.10190
 PZ  C   9   0.02057     0.05379     0.04008    -0.30939    -0.05469    -0.14837
  
  S  C  10   0.00162     0.05476    -0.00301    -0.00571     0.01206    -0.00258
 PX  C  10  -0.16467    -0.03759    -0.02468    -0.09194     0.08869     0.20623
 PY  C  10   0.23831     0.09421     0.15600     0.00139    -0.24143     0.09414
 PZ  C  10   0.01487     0.04871     0.01995    -0.31123     0.02008    -0.11899
  
  S  C  11   0.01940    -0.05833    -0.00839    -0.02488     0.04459     0.02768
 PX  C  11   0.17141    -0.01024     0.02619     0.08862    -0.05519    -0.19075
 PY  C  11  -0.01855    -0.15931     0.02247     0.03510     0.20833    -0.03760
 PZ  C  11  -0.02514     0.05848     0.01961    -0.15231     0.08374    -0.04961
  
  S  H  12   0.10657     0.09019    -0.00967     0.02530    -0.21850    -0.04733
  
  S  C  13  -0.04371     0.06311     0.00079     0.01117     0.06438    -0.01197
 PX  C  13  -0.06658     0.09011     0.04731    -0.08478     0.06642     0.22589
 PY  C  13   0.14685     0.09176     0.01593    -0.03260    -0.22568     0.10750
 PZ  C  13  -0.04014     0.07781     0.01782    -0.15961    -0.03428    -0.06782
  
  S  H  14   0.11834     0.05266     0.21646     0.02020    -0.13226    -0.01112
  
  S  H  15   0.05210     0.22325    -0.10314     0.06252     0.04252    -0.10745
  
  S  H  16  -0.16594    -0.12081     0.23616    -0.00278    -0.04434     0.00268
  
  S  H  17  -0.15518    -0.08613     0.21637    -0.01133    -0.03509    -0.02416
  
  S  H  18   0.20788    -0.11425    -0.13600    -0.05105    -0.02150     0.14911
  
  S  H  19   0.10301     0.02154     0.18186     0.02311    -0.10896    -0.01053
  
  S  H  20   0.13067     0.05594    -0.00748     0.03089    -0.21773    -0.02998
  
  S  C  21  -0.01050    -0.02957     0.00975    -0.01523     0.03793     0.02769
 PX  C  21   0.04171    -0.19207    -0.09961     0.10152    -0.12301    -0.15119
 PY  C  21   0.21627    -0.06952     0.09934    -0.01814     0.15926    -0.03908
 PZ  C  21  -0.03830     0.11596     0.04162     0.17877     0.08967     0.16430
  
  S  C  22  -0.01847     0.00693    -0.00348     0.00916     0.00151     0.00040
 PX  C  22   0.00096     0.26416     0.08518     0.02367     0.07114     0.15293
 PY  C  22  -0.26600     0.02953    -0.11955    -0.01994    -0.17363     0.02214
 PZ  C  22  -0.05431     0.01722    -0.01637     0.27409     0.00544     0.13839
  
  S  C  23  -0.00830    -0.01024    -0.00836     0.00524    -0.01359     0.01616
 PX  C  23   0.01151    -0.24872    -0.07644     0.04846    -0.05802    -0.14429
 PY  C  23   0.27023    -0.00872     0.12605    -0.00252     0.17097    -0.01408
 PZ  C  23  -0.03814     0.07246    -0.00145     0.27401    -0.01681     0.14354
  
  S  C  24  -0.02880     0.00167     0.00828     0.00499     0.04709    -0.02081
 PX  C  24  -0.02578     0.25181     0.05401    -0.02871     0.00654     0.16697
 PY  C  24  -0.17961     0.04421    -0.11596    -0.04713    -0.21453     0.04127
 PZ  C  24  -0.06135     0.05863    -0.02299     0.20277    -0.06450     0.06952
  
  S  H  25  -0.15543    -0.06266    -0.13811     0.03006    -0.21172    -0.05960
  
  S  H  26   0.00739     0.25880     0.09023    -0.03017     0.07395     0.12922
  
  S  H  27   0.22793    -0.14661     0.06273     0.02181     0.11050    -0.09155
  
  S  H  28  -0.15896    -0.07679    -0.13259    -0.00425    -0.20028    -0.05600
  
  S  C  29  -0.00652     0.03411     0.00221     0.00583     0.01516    -0.00624
 PX  C  29  -0.04163     0.19414     0.11608    -0.08364     0.16508     0.18978
 PY  C  29  -0.05117     0.09295    -0.10507    -0.01539    -0.31599     0.01923
 PZ  C  29  -0.04405     0.10561     0.01156     0.03164     0.03182     0.02647
  
  S  C  30   0.02088    -0.01686    -0.01454     0.00027    -0.03045     0.01182
 PX  C  30   0.11759    -0.12360    -0.05027     0.09193    -0.11192    -0.21295
 PY  C  30   0.11125    -0.09149     0.13464     0.01202     0.32815    -0.01328
 PZ  C  30  -0.05781     0.09738    -0.00550     0.03576    -0.05979    -0.01023




    ROOT NO.   37          38          39          40          41          42

           -10.58086    -9.91508    -9.66606    -8.30739    -8.07035    -6.77963
  
  
  S  C   1   0.00329     0.00467     0.00716    -0.00639     0.00726     0.00525
 PX  C   1  -0.01075     0.00400    -0.01661     0.01907    -0.00573    -0.01196
 PY  C   1   0.01191    -0.03083    -0.00115     0.00368    -0.01895    -0.00778
 PZ  C   1   0.08916     0.29580     0.24976    -0.20816     0.26926     0.17799
  
  S  C   2  -0.00427     0.00259    -0.00115    -0.00380     0.00142     0.00468
 PX  C   2   0.00102    -0.00872     0.00201    -0.00834    -0.00050     0.00579
 PY  C   2  -0.03857     0.00456    -0.04686     0.03415     0.00025    -0.01497
 PZ  C   2   0.18189     0.04284     0.34296    -0.35833     0.03651     0.21667
  
  S  C   3   0.00218    -0.01141     0.00203    -0.00377    -0.01060    -0.00267
 PX  C   3  -0.01545     0.02780    -0.00654     0.01072     0.01907    -0.00178
 PY  C   3   0.02790    -0.00688     0.01852    -0.00820     0.00144     0.00567
 PZ  C   3   0.19686    -0.33035     0.15685    -0.07151    -0.32987    -0.13574
  
  S  C   4   0.00960     0.00803     0.01030    -0.00069     0.01624    -0.00492
 PX  C   4   0.00976    -0.03121    -0.00110    -0.01534    -0.00148     0.00823
 PY  C   4  -0.02995    -0.00049    -0.02573     0.00434    -0.00035    -0.00019
 PZ  C   4  -0.21037    -0.19958    -0.30860     0.00350    -0.34011     0.15274
  
  S  C   5   0.00075     0.00405     0.00535     0.00006    -0.00067    -0.00011
 PX  C   5  -0.00973     0.03347    -0.00276     0.01811     0.00213    -0.00840
 PY  C   5   0.02638    -0.01087     0.02941    -0.01730     0.00428     0.00642
 PZ  C   5  -0.18830     0.19970    -0.30584     0.36829    -0.04545    -0.21747
  
  S  C   6  -0.00413     0.00648    -0.00656     0.00599     0.00359    -0.00350
 PX  C   6   0.01062    -0.04513     0.00834    -0.02874    -0.01695     0.01802
 PY  C   6  -0.01623    -0.00688    -0.01316    -0.00692    -0.00486     0.00948
 PZ  C   6  -0.09231     0.37415    -0.10669     0.27350     0.21033    -0.19239
  
  S  C   7  -0.01942     0.00986    -0.00876    -0.00352     0.00379     0.00697
 PX  C   7  -0.01134    -0.00022    -0.00744    -0.01890    -0.00223     0.02158
 PY  C   7  -0.04928     0.02353    -0.02182    -0.01942     0.00711     0.02658
 PZ  C   7   0.30828    -0.28049     0.16892     0.21703    -0.01125    -0.36257
  
  S  C   8   0.00011    -0.00121     0.00671     0.01037    -0.00761    -0.01267
 PX  C   8   0.03076     0.02573     0.05112     0.02579     0.00316    -0.04113
 PY  C   8   0.02220     0.01185     0.01669     0.00211     0.00201    -0.00265
 PZ  C   8  -0.33008    -0.12707    -0.27345    -0.21832     0.03039     0.35956
  
  S  C   9  -0.00323     0.01062    -0.00124    -0.01098     0.02167    -0.00002
 PX  C   9   0.02954    -0.01127    -0.02176     0.00817    -0.03702     0.00378
 PY  C   9  -0.03586    -0.00629    -0.00971    -0.00721     0.01744    -0.00183
 PZ  C   9  -0.26030     0.02971    -0.01529    -0.19126     0.38413    -0.00613
  
  S  C  10   0.00370     0.00168     0.00500     0.01202     0.01266    -0.00425
 PX  C  10  -0.03445    -0.00241     0.01217    -0.01648    -0.01741    -0.00693
 PY  C  10   0.02751     0.00412     0.00269    -0.00690    -0.03111     0.00020
 PZ  C  10   0.25597    -0.00930     0.03725     0.26776     0.35580    -0.00284
  
  S  C  11   0.00126     0.00598     0.00277     0.00949    -0.00100     0.01365
 PX  C  11   0.02138     0.00328    -0.01004     0.01115     0.01096     0.00909
 PY  C  11  -0.08206    -0.03711     0.02728    -0.02228     0.00680    -0.04050
 PZ  C  11   0.33576     0.24434    -0.11372     0.21955    -0.02540     0.38113
  
  S  H  12   0.04423     0.00365    -0.01585    -0.00088     0.00264    -0.00643
  
  S  C  13  -0.00128    -0.01082    -0.00573     0.01529    -0.00668     0.02503
 PX  C  13   0.01363    -0.00208     0.01065     0.02690     0.00068     0.03179
 PY  C  13  -0.00044     0.01318     0.02062    -0.01092     0.00513    -0.02195
 PZ  C  13  -0.32664     0.18811     0.23816    -0.21398    -0.00678    -0.37801
  
  S  H  14   0.03089    -0.01282     0.01061     0.00233    -0.00983    -0.00286
  
  S  H  15  -0.01101    -0.00153    -0.01025     0.00318    -0.00328    -0.00144
  
  S  H  16   0.02095    -0.01282     0.01596    -0.00691    -0.00477    -0.00080
  
  S  H  17   0.02004    -0.01600     0.01423    -0.00535    -0.00235    -0.00154
  
  S  H  18  -0.00624     0.01774    -0.00371     0.00986     0.00017    -0.00383
  
  S  H  19   0.01230    -0.00204    -0.00204    -0.00626    -0.00652     0.01064
  
  S  H  20   0.00930    -0.00343    -0.00278    -0.01064     0.00245    -0.01339
  
  S  C  21   0.00053     0.00595    -0.00247    -0.00706    -0.00639    -0.00689
 PX  C  21   0.05514     0.00332    -0.07271    -0.05676     0.00171    -0.03357
 PY  C  21  -0.04568     0.00683     0.04578     0.02877    -0.00915     0.01709
 PZ  C  21   0.19609    -0.03872    -0.33659    -0.31595     0.02903    -0.23366
  
  S  C  22  -0.00137    -0.00975    -0.00452    -0.00570     0.00942    -0.00892
 PX  C  22   0.00424    -0.06689    -0.04105    -0.02944     0.05805    -0.03302
 PY  C  22   0.02844     0.01288    -0.00909     0.00019    -0.00720     0.00510
 PZ  C  22   0.07222    -0.28011    -0.24069    -0.18170     0.27983    -0.19357
  
  S  C  23  -0.00517    -0.00459     0.00921     0.00946    -0.00071     0.00747
 PX  C  23   0.00557    -0.01244    -0.00487     0.01256     0.01246     0.01586
 PY  C  23  -0.01839     0.00517     0.00386    -0.00726    -0.00517    -0.00862
 PZ  C  23  -0.14397    -0.35878     0.11273     0.24145     0.23023     0.20331
  
  S  C  24   0.00716    -0.00287    -0.02244    -0.02012     0.00891    -0.01396
 PX  C  24  -0.02391    -0.01006     0.03453     0.02248    -0.00822     0.00975
 PY  C  24   0.04318     0.02090    -0.01780    -0.01074     0.00163    -0.00817
 PZ  C  24  -0.23806    -0.17480     0.31064     0.32459    -0.05192     0.23710
  
  S  H  25   0.03841     0.00342    -0.02343    -0.00212     0.00449     0.00806
  
  S  H  26  -0.01290    -0.01512     0.00870     0.00873     0.00544     0.00676
  
  S  H  27  -0.01313     0.00357     0.00298     0.00033    -0.00343     0.00143
  
  S  H  28   0.02976     0.00623    -0.00809     0.00874     0.00317     0.01231
  
  S  C  29   0.00822     0.01516    -0.01155    -0.01005    -0.01418     0.00454
 PX  C  29  -0.01022     0.02213     0.01951     0.01298    -0.03321     0.01720
 PY  C  29   0.05693     0.00234    -0.02770    -0.00465     0.01660    -0.00074
 PZ  C  29   0.25019     0.29946    -0.16541    -0.06446    -0.32556     0.14397
  
  S  C  30  -0.00000     0.01236     0.01252     0.00036    -0.01132    -0.01218
 PX  C  30   0.02586    -0.02189    -0.04256    -0.01261     0.02560     0.00286
 PY  C  30  -0.05506    -0.00430     0.02718     0.00804    -0.01891     0.00449
 PZ  C  30  -0.21883     0.20959     0.29210    -0.00123    -0.35524    -0.15207




    ROOT NO.   43          44          45          46          47          48

            -1.00286     0.16386     0.30610     1.28723     1.35839     1.80804
  
  
  S  C   1  -0.00868     0.01163    -0.01255    -0.01237    -0.02822    -0.01307
 PX  C   1   0.00261    -0.00955     0.00463     0.00399     0.01248    -0.00546
 PY  C   1   0.01426    -0.00963     0.01952     0.01440     0.01323     0.00253
 PZ  C   1  -0.19522     0.20865    -0.26890    -0.21526    -0.32062    -0.03995
  
  S  C   2   0.00627     0.00140     0.01173     0.01696     0.01537     0.02760
 PX  C   2  -0.00049     0.00535    -0.00257    -0.00209    -0.00592     0.00651
 PY  C   2  -0.01704     0.00109    -0.02883    -0.02725    -0.00607    -0.00216
 PZ  C   2   0.21415     0.03264     0.35951     0.35701     0.08696     0.14540
  
  S  C   3  -0.00068    -0.00810    -0.00976    -0.02238    -0.00832    -0.04473
 PX  C   3  -0.01183     0.01110     0.00122     0.02283    -0.01431     0.00968
 PY  C   3  -0.00085     0.00963     0.00124     0.00140    -0.00884    -0.00061
 PZ  C   3   0.15391    -0.32480    -0.00146    -0.23357     0.30071    -0.19913
  
  S  C   4  -0.01244    -0.01521     0.00394     0.03367     0.02719     0.03984
 PX  C   4  -0.00381    -0.00051     0.00145     0.00801     0.00153     0.01040
 PY  C   4  -0.00112    -0.00446    -0.00245    -0.00270     0.00561    -0.00418
 PZ  C   4   0.14602     0.33739    -0.08190    -0.29602    -0.25967    -0.17078
  
  S  C   5   0.00665     0.01148     0.00116    -0.01513    -0.02226    -0.01931
 PX  C   5   0.00732     0.00408     0.00278    -0.00756    -0.00537    -0.00978
 PY  C   5  -0.01183    -0.00562    -0.01900    -0.01841     0.01443    -0.01135
 PZ  C   5   0.21755     0.03569     0.35789     0.33996    -0.15896     0.18495
  
  S  C   6  -0.00590    -0.01476    -0.00462     0.00393     0.03264     0.00605
 PX  C   6   0.01092     0.01471     0.01400     0.01389    -0.01905     0.01205
 PY  C   6   0.00104     0.01015     0.00153     0.00506    -0.01512     0.00646
 PZ  C   6  -0.18222    -0.25756    -0.20794    -0.15929     0.36029    -0.11792
  
  S  C   7   0.00964    -0.00678     0.00886    -0.00447     0.01893     0.03170
 PX  C   7   0.01875    -0.00478     0.00738    -0.02154     0.01567    -0.01335
 PY  C   7   0.02484    -0.00482     0.01327    -0.01797     0.01943    -0.00371
 PZ  C   7  -0.36148    -0.04768    -0.22455     0.22938    -0.21216     0.30815
  
  S  C   8   0.01237     0.01740     0.00603    -0.02134    -0.02915    -0.04031
 PX  C   8   0.02647     0.00935     0.01773    -0.01678    -0.01535    -0.02227
 PY  C   8   0.00037    -0.00394     0.00367     0.00615     0.00439     0.00393
 PZ  C   8  -0.36360    -0.02092    -0.21537     0.28053     0.18514     0.27098
  
  S  C   9   0.00325    -0.04295     0.00551     0.00256     0.02077     0.02922
 PX  C   9   0.01047     0.02400    -0.02314    -0.00488    -0.00548     0.02282
 PY  C   9   0.00049     0.00290     0.00849     0.00149    -0.00656    -0.01866
 PZ  C   9   0.00200    -0.34035     0.27860    -0.05783     0.01686    -0.25053
  
  S  C  10  -0.00804     0.03492     0.00730     0.01320    -0.02771    -0.06200
 PX  C  10  -0.00656    -0.02706    -0.00202     0.01243    -0.00605    -0.01159
 PY  C  10   0.00446    -0.01031    -0.01491     0.00088     0.00189     0.01553
 PZ  C  10  -0.00481     0.40510     0.20479    -0.04651    -0.02649    -0.26290
  
  S  C  11   0.01888    -0.00199    -0.01074    -0.02711     0.04344     0.08494
 PX  C  11   0.00885     0.02008     0.00028    -0.00929     0.00841     0.00751
 PY  C  11  -0.03675     0.01089     0.02659     0.00005    -0.01160    -0.01528
 PZ  C  11   0.36717    -0.00377    -0.21826    -0.11899     0.24220     0.33463
  
  S  H  12  -0.01064     0.00434     0.00843     0.01114    -0.02648    -0.04375
  
  S  C  13  -0.01405     0.00350     0.00546     0.00444    -0.01428    -0.03528
 PX  C  13  -0.02395    -0.01913     0.01688     0.01172     0.00127    -0.02462
 PY  C  13   0.01405    -0.01474    -0.00432    -0.00466    -0.00224     0.01537
 PZ  C  13   0.37861    -0.04629    -0.21698    -0.16940    -0.19442     0.33817
  
  S  H  14  -0.00203     0.00544    -0.00758    -0.00087    -0.00769    -0.01077
  
  S  H  15   0.00504    -0.00616     0.00736     0.00712     0.01583     0.00862
  
  S  H  16  -0.00037    -0.00252    -0.00545    -0.01284    -0.00780    -0.01601
  
  S  H  17   0.00092    -0.00516     0.00407     0.00941     0.00948     0.01119
  
  S  H  18   0.00570     0.00943     0.00567    -0.00039    -0.02287    -0.00236
  
  S  H  19  -0.00358    -0.00565    -0.00685     0.01008     0.01389     0.02853
  
  S  H  20   0.00506     0.00154    -0.00282    -0.00649     0.00950     0.02549
  
  S  C  21  -0.00962     0.01309     0.01735    -0.03332     0.01740     0.05573
 PX  C  21  -0.04287    -0.01320     0.05262    -0.04162    -0.03684     0.01525
 PY  C  21   0.01333    -0.00456    -0.01996     0.02088    -0.00053    -0.01630
 PZ  C  21  -0.23072     0.03430     0.31317    -0.31378    -0.07185     0.24213
  
  S  C  22   0.00738     0.01622    -0.01438     0.02542     0.01936    -0.03739
 PX  C  22   0.03956     0.04161    -0.04263     0.03208     0.05740    -0.01310
 PY  C  22  -0.00687    -0.00402     0.01071    -0.01464    -0.00215     0.01646
 PZ  C  22   0.20280     0.23112    -0.23052     0.18883     0.30327    -0.10489
  
  S  C  23  -0.00226    -0.01137     0.00378    -0.00578    -0.01303     0.01487
 PX  C  23   0.01360    -0.02444    -0.01262     0.00975    -0.03516    -0.01383
 PY  C  23  -0.00396     0.01430     0.00237     0.00092     0.01851    -0.00273
 PZ  C  23   0.20424    -0.27466    -0.18977     0.14272    -0.34132    -0.13049
  
  S  C  24   0.01333    -0.00176    -0.01984     0.02582    -0.01684    -0.04450
 PX  C  24  -0.01725     0.01489     0.02078    -0.02000     0.02862     0.02359
 PY  C  24   0.01144     0.00655    -0.01758     0.01908     0.00590    -0.01057
 PZ  C  24  -0.23983     0.02486     0.32263    -0.30543     0.13992     0.25257
  
  S  H  25   0.00829    -0.01415    -0.01035     0.01405    -0.01120    -0.02228
  
  S  H  26   0.00108    -0.01190     0.00550    -0.01648    -0.01461     0.02661
  
  S  H  27  -0.00152     0.00079     0.00236    -0.00228     0.00222    -0.00394
  
  S  H  28  -0.00419    -0.00630     0.01463    -0.02619     0.00412     0.03924
  
  S  C  29  -0.00703    -0.03889    -0.00637     0.03864    -0.05691    -0.08485
 PX  C  29  -0.00394    -0.01487    -0.01138     0.02308    -0.00199    -0.01707
 PY  C  29   0.01605    -0.00397    -0.00767    -0.00860     0.00031     0.01713
 PZ  C  29  -0.14553    -0.34417     0.00119     0.17779    -0.28975    -0.24668
  
  S  C  30  -0.00480     0.03529     0.00314    -0.00844     0.04735     0.04093
 PX  C  30   0.00579    -0.00409     0.00616    -0.02101    -0.00121     0.02340
 PY  C  30  -0.01266    -0.00389     0.00355     0.01026    -0.00784    -0.02038
 PZ  C  30  -0.15164     0.34584    -0.07170     0.25575     0.23678    -0.26882




    ROOT NO.   49          50          51          52          53          54

             2.37094     2.39993     2.76655     3.15144     3.22997     3.33471
  
  
  S  C   1  -0.01180    -0.12056     0.19470     0.00347    -0.09556     0.24536
 PX  C   1  -0.02686    -0.02083     0.02784    -0.02368     0.03557     0.04122
 PY  C   1  -0.01887    -0.01276     0.03021    -0.00202    -0.06514    -0.00327
 PZ  C   1   0.31354    -0.11925     0.02666     0.21795     0.13013     0.01059
  
  S  C   2   0.04793     0.16748    -0.24854     0.02839     0.03096    -0.26794
 PX  C   2   0.02509     0.02297    -0.01666     0.02217    -0.03541     0.02069
 PY  C   2   0.04337     0.03641    -0.04430     0.04033     0.00227    -0.00554
 PZ  C   2  -0.23559     0.08453    -0.03218    -0.23412    -0.13592    -0.02805
  
  S  C   3  -0.10614    -0.22640     0.29027    -0.07987    -0.00989     0.14786
 PX  C   3  -0.02055    -0.00086    -0.05290    -0.02894     0.12132    -0.01575
 PY  C   3  -0.02043    -0.01862     0.00963    -0.00932    -0.07090    -0.12660
 PZ  C   3   0.05875    -0.02115     0.04977     0.29839     0.16147     0.07152
  
  S  C   4   0.09625     0.21173    -0.26032     0.03212     0.22399     0.11823
 PX  C   4   0.01971     0.01754     0.01485     0.00625    -0.08506     0.01199
 PY  C   4   0.00204    -0.01618     0.06297    -0.02965     0.01829     0.13288
 PZ  C   4  -0.00808     0.08139    -0.09244    -0.28544    -0.13104    -0.06627
  
  S  C   5  -0.05351    -0.14656     0.21134    -0.00996    -0.26906    -0.05075
 PX  C   5  -0.03074    -0.05003     0.04631    -0.01286    -0.03369    -0.06789
 PY  C   5  -0.01949     0.01367    -0.01780    -0.02314     0.00454    -0.04029
 PZ  C   5   0.20436    -0.12664     0.06114     0.22093     0.11849     0.03722
  
  S  C   6   0.00466     0.11637    -0.18266    -0.03413     0.20971    -0.09771
 PX  C   6   0.03045     0.01687    -0.03100     0.02101     0.03270    -0.00081
 PY  C   6   0.02486     0.00298     0.00024     0.01182     0.04739     0.09190
 PZ  C   6  -0.29930     0.13710    -0.03794    -0.20904    -0.12871    -0.01695
  
  S  C   7   0.14380     0.21024    -0.15851     0.08951    -0.22711    -0.05835
 PX  C   7   0.01020    -0.00983     0.08360    -0.00185    -0.09884     0.06277
 PY  C   7   0.03166     0.03592     0.02140     0.01219    -0.07550     0.03067
 PZ  C   7   0.11853    -0.07389    -0.02093    -0.15254    -0.10512    -0.08182
  
  S  C   8  -0.12104    -0.19277     0.12537     0.02752    -0.06091    -0.29822
 PX  C   8  -0.02799    -0.01817    -0.06829     0.02125     0.08760    -0.08717
 PY  C   8   0.01110     0.03253    -0.06118     0.01289     0.05643    -0.01548
 PZ  C   8  -0.19113     0.01229     0.03652     0.15224     0.08184     0.06303
  
  S  C   9   0.19310     0.20450    -0.00347    -0.06829    -0.13755     0.35465
 PX  C   9  -0.00241     0.01999     0.06485    -0.01186    -0.07182    -0.02494
 PY  C   9  -0.02540    -0.01202     0.04877    -0.05317     0.14003     0.04797
 PZ  C   9   0.33725    -0.12909     0.03441    -0.02547    -0.04279    -0.14433
  
  S  C  10  -0.20510    -0.21375     0.02691    -0.04345     0.38023    -0.07278
 PX  C  10   0.02286     0.00290    -0.06802    -0.01160     0.02406     0.08684
 PY  C  10  -0.01286    -0.01810    -0.04502     0.04777    -0.01561    -0.14464
 PZ  C  10  -0.26796     0.18592    -0.02841     0.03056     0.01241     0.11036
  
  S  C  11   0.15132     0.18436     0.10242     0.03111    -0.25840    -0.09596
 PX  C  11  -0.04368    -0.02991     0.06480    -0.01058     0.11253    -0.06118
 PY  C  11   0.00340     0.04906     0.05916    -0.01753     0.01578    -0.04198
 PZ  C  11   0.09782    -0.10252     0.04318     0.12503     0.01790    -0.03752
  
  S  H  12  -0.08650    -0.09066    -0.06463    -0.00029     0.12610     0.02386
  
  S  C  13  -0.12455    -0.19576    -0.12790     0.12780    -0.05449    -0.25987
 PX  C  13   0.01816    -0.02478    -0.08467     0.04000    -0.08367     0.06217
 PY  C  13   0.03560     0.03386    -0.02299    -0.00571    -0.04538     0.07829
 PZ  C  13  -0.21099    -0.00115    -0.08758    -0.09950     0.01738     0.05456
  
  S  H  14  -0.08459    -0.12089     0.09779    -0.04972     0.12321    -0.00352
  
  S  H  15   0.01086     0.07282    -0.11661     0.00525     0.04953    -0.15369
  
  S  H  16  -0.01967    -0.09731     0.15421    -0.00309    -0.04215     0.16197
  
  S  H  17   0.03364     0.08354    -0.13426     0.01802     0.16987     0.00937
  
  S  H  18   0.00135    -0.07680     0.11637     0.03163    -0.13392     0.05896
  
  S  H  19   0.06851     0.11042    -0.08349    -0.00741     0.00536     0.17107
  
  S  H  20   0.06581     0.10370     0.07237    -0.05792     0.00055     0.13553
  
  S  C  21   0.04739     0.14609     0.18209     0.03048    -0.03510    -0.23011
 PX  C  21  -0.06429    -0.02562    -0.03154     0.03279     0.03512     0.02359
 PY  C  21   0.01054     0.00236     0.01706    -0.02855     0.02265    -0.03937
 PZ  C  21  -0.18772     0.13314     0.07595     0.24824    -0.00154     0.03674
  
  S  C  22  -0.01565    -0.12268    -0.16786     0.01083    -0.04211     0.24036
 PX  C  22   0.05454    -0.01435     0.01084    -0.05306     0.01147    -0.01266
 PY  C  22  -0.00144     0.01204    -0.00369     0.05027    -0.06787    -0.02480
 PZ  C  22   0.24101    -0.20087    -0.08261    -0.23670     0.00454    -0.04940
  
  S  C  23   0.03135     0.12140     0.18372    -0.11671     0.17896    -0.10874
 PX  C  23  -0.03961    -0.00281    -0.02344     0.07557    -0.05437    -0.04498
 PY  C  23   0.00972    -0.02758    -0.02593    -0.02549     0.01638     0.05628
 PZ  C  23  -0.20582     0.24041     0.11195     0.22404    -0.00815     0.02351
  
  S  C  24  -0.08246    -0.15168    -0.23773     0.21640    -0.24808     0.02449
 PX  C  24   0.03453     0.00532     0.01095    -0.04184     0.01082     0.04927
 PY  C  24   0.01902     0.05158     0.04652     0.00216     0.01209     0.03199
 PZ  C  24   0.10876    -0.21511    -0.14191    -0.20663    -0.00813     0.01346
  
  S  H  25  -0.01968    -0.07702    -0.10346    -0.01378    -0.00503     0.11022
  
  S  H  26   0.00912     0.08353     0.11159    -0.00282     0.02027    -0.16896
  
  S  H  27  -0.02238    -0.07521    -0.11245     0.07206    -0.11560     0.05332
  
  S  H  28   0.04641     0.08931     0.15395    -0.14628     0.15986    -0.04981
  
  S  C  29  -0.10906    -0.20574    -0.23766     0.00677     0.05512     0.18100
 PX  C  29   0.04149     0.02675     0.00332    -0.05349    -0.00081     0.06886
 PY  C  29  -0.00552    -0.02694    -0.07707     0.07838    -0.13583    -0.03793
 PZ  C  29   0.04312    -0.01400    -0.07212    -0.27223    -0.01324    -0.01694
  
  S  C  30   0.11779     0.21602     0.27134    -0.16748     0.18514     0.05586
 PX  C  30  -0.01215    -0.00649     0.04719    -0.00491     0.01760    -0.12803
 PY  C  30  -0.00763    -0.02151    -0.00700    -0.06070     0.08637     0.04444
 PZ  C  30   0.03706     0.08705     0.10936     0.26199    -0.02794    -0.04067




    ROOT NO.   55          56          57          58          59          60

             3.55210     3.69278     3.75592     3.84610     4.07342     4.24642
  
  
  S  C   1   0.13814     0.31199     0.11235    -0.16820     0.05082     0.03677
 PX  C   1  -0.06671    -0.04004    -0.10650    -0.07612     0.10414     0.02059
 PY  C   1   0.05853     0.04910     0.08241     0.04865    -0.04021    -0.02419
 PZ  C   1   0.07529    -0.08904    -0.02384     0.02111    -0.01799    -0.00278
  
  S  C   2   0.02380    -0.10892     0.15030     0.24841    -0.25592    -0.05770
 PX  C   2   0.08901     0.12828     0.11341    -0.01411    -0.02683    -0.00001
 PY  C   2   0.05749     0.05618     0.04457    -0.03845     0.06016     0.00932
 PZ  C   2  -0.10952     0.09241     0.01665    -0.02324     0.03603     0.00273
  
  S  C   3  -0.17797    -0.16998    -0.26828    -0.04574    -0.00352     0.05046
 PX  C   3  -0.06290     0.02360     0.02233    -0.00763    -0.18142     0.03010
 PY  C   3  -0.00800    -0.12775     0.02174     0.15544    -0.04860    -0.05056
 PZ  C   3   0.21653    -0.12582    -0.01429     0.01393    -0.03929    -0.00195
  
  S  C   4   0.04539     0.27182     0.09725    -0.19143    -0.05424     0.05063
 PX  C   4   0.07283     0.03531     0.08868     0.12169    -0.15113    -0.01915
 PY  C   4  -0.06165    -0.01391    -0.11297    -0.02465    -0.09786     0.05344
 PZ  C   4  -0.20087     0.14872     0.03493    -0.02020     0.01391     0.00282
  
  S  C   5   0.11466    -0.03483     0.14511     0.28023    -0.24912    -0.05461
 PX  C   5  -0.06419    -0.14496    -0.09738     0.03851     0.05213     0.00851
 PY  C   5  -0.04629    -0.07093    -0.03622     0.04498    -0.03584    -0.00596
 PZ  C   5   0.09904    -0.08937    -0.02845     0.01293    -0.01798     0.00140
  
  S  C   6  -0.23175    -0.25325    -0.26211    -0.05731     0.09460     0.03684
 PX  C   6   0.01017     0.00969     0.00745    -0.02036     0.03336    -0.00680
 PY  C   6   0.01338     0.10395    -0.00975    -0.13371     0.09264     0.02891
 PZ  C   6  -0.06248     0.09237     0.03740    -0.01476     0.01680    -0.00222
  
  S  C   7   0.19278     0.03791     0.07683     0.06966     0.35153    -0.09661
 PX  C   7  -0.01881    -0.07780    -0.12411    -0.00546     0.07441     0.02351
 PY  C   7  -0.00534    -0.04118    -0.07497    -0.00025    -0.06485     0.06306
 PZ  C   7  -0.19619     0.10864     0.02437     0.01613     0.03450    -0.00523
  
  S  C   8   0.02368    -0.15678     0.09101     0.00668     0.33847    -0.11203
 PX  C   8   0.01395     0.09390     0.07863    -0.10416    -0.02028     0.05223
 PY  C   8   0.01527     0.05923     0.04529    -0.05780     0.05542    -0.00612
 PZ  C   8   0.19819    -0.11888    -0.01900    -0.00627     0.00245    -0.00654
  
  S  C   9  -0.06784    -0.04617    -0.20464     0.14143    -0.08745    -0.08051
 PX  C   9   0.02310    -0.10189     0.01725     0.03592     0.14473    -0.09062
 PY  C   9  -0.04512    -0.00512     0.08269    -0.00042    -0.04233    -0.15500
 PZ  C   9  -0.25667     0.14447     0.06598     0.01835     0.03167     0.00338
  
  S  C  10  -0.06279     0.09812     0.17759    -0.07739    -0.11121    -0.10545
 PX  C  10  -0.00174     0.04583    -0.00420     0.11615     0.06271    -0.15093
 PY  C  10   0.06918     0.02781     0.09796    -0.02190     0.15097     0.00506
 PZ  C  10   0.27789    -0.15637    -0.06196    -0.03248    -0.01134     0.01333
  
  S  C  11   0.02717    -0.13335    -0.03283    -0.17250    -0.06373     0.32594
 PX  C  11  -0.02811     0.01142     0.07902    -0.11331    -0.05825    -0.00506
 PY  C  11   0.01579    -0.03532     0.04653    -0.09001    -0.02892    -0.05609
 PZ  C  11  -0.22151     0.12803     0.03861     0.07959     0.03453    -0.03777
  
  S  H  12   0.00517     0.08337     0.01701     0.08685     0.06153    -0.27522
  
  S  C  13   0.08214     0.13611    -0.08071    -0.06060    -0.02905     0.37120
 PX  C  13  -0.01207     0.04236    -0.13405     0.03803    -0.02015    -0.04163
 PY  C  13  -0.00809     0.00343    -0.08317     0.02426    -0.01918     0.04797
 PZ  C  13   0.20200    -0.09526    -0.03723    -0.04536    -0.01828     0.00178
  
  S  H  14  -0.12621    -0.04540    -0.04658    -0.03572    -0.32387     0.11626
  
  S  H  15  -0.07220    -0.19133    -0.06450     0.10013     0.00728    -0.03110
  
  S  H  16   0.00526     0.06752    -0.09951    -0.17480     0.24419     0.03433
  
  S  H  17  -0.06682     0.01613    -0.09516    -0.20541     0.23475     0.03432
  
  S  H  18   0.15980     0.16695     0.17343     0.02305    -0.01659    -0.03062
  
  S  H  19   0.00160     0.11175    -0.05889     0.01326    -0.29755     0.12314
  
  S  H  20  -0.04867    -0.10133     0.05601     0.01873     0.03848    -0.31716
  
  S  C  21   0.05479     0.06743    -0.13452    -0.25972    -0.14404    -0.25339
 PX  C  21  -0.00039     0.09948    -0.11489     0.11347     0.00844    -0.05938
 PY  C  21   0.04853     0.05233    -0.07837     0.03634     0.00407     0.00851
 PZ  C  21  -0.17863     0.05356     0.05284     0.07961     0.03437     0.04726
  
  S  C  22  -0.14229    -0.22636     0.33697     0.00712     0.07219     0.14178
 PX  C  22   0.02641    -0.01279     0.00709    -0.00976     0.00251    -0.02214
 PY  C  22  -0.03156    -0.04714     0.03581    -0.15095    -0.06428    -0.07427
 PZ  C  22   0.15500    -0.02615    -0.06144    -0.05873    -0.02669    -0.02517
  
  S  C  23   0.13173     0.20082    -0.22200     0.24754     0.07184     0.01006
 PX  C  23  -0.00298     0.05939    -0.10643    -0.04906    -0.04988    -0.12994
 PY  C  23  -0.01743    -0.04077     0.07154     0.04786     0.04049     0.04579
 PZ  C  23  -0.14023     0.02140     0.06017     0.03572     0.01849     0.03542
  
  S  C  24  -0.09032    -0.01777    -0.08124    -0.22480    -0.12964    -0.26021
 PX  C  24  -0.02966    -0.10049     0.14111    -0.06016    -0.00157     0.04445
 PY  C  24  -0.05206    -0.04736     0.07406    -0.06829    -0.03711    -0.11107
 PZ  C  24   0.13965    -0.05396    -0.04122    -0.05938    -0.02720    -0.05954
  
  S  H  25  -0.01771    -0.04642     0.07290     0.13973     0.08702     0.22341
  
  S  H  26   0.09880     0.14886    -0.22540    -0.01222    -0.05030    -0.05209
  
  S  H  27  -0.07270    -0.12793     0.13981    -0.16601    -0.04745     0.04346
  
  S  H  28   0.08565     0.01451     0.05412     0.15484     0.10178     0.28439
  
  S  C  29   0.00447     0.13200    -0.15037     0.33483     0.10286    -0.02945
 PX  C  29  -0.00802    -0.09192     0.11104     0.04019     0.04824     0.12570
 PY  C  29   0.01876     0.02883    -0.12009    -0.01978    -0.02458     0.10818
 PZ  C  29   0.25442    -0.13753    -0.02174    -0.14651    -0.05029    -0.01615
  
  S  C  30  -0.04833    -0.15438     0.28837    -0.04386     0.02616    -0.05168
 PX  C  30   0.04851     0.01822     0.01837    -0.03961    -0.00163     0.19277
 PY  C  30   0.03456     0.05200    -0.03056     0.18960     0.08246     0.07172
 PZ  C  30  -0.22212     0.12310     0.00455     0.08067     0.02392     0.03681




    ROOT NO.   61          62          63          64          65          66

             5.14778     5.29958     5.41997     5.62611     6.04384     6.39968
  
  
  S  C   1   0.06556    -0.01277    -0.32321    -0.13381    -0.06577     0.00453
 PX  C   1  -0.11417    -0.05355     0.08593     0.13885     0.11528    -0.02629
 PY  C   1   0.05489     0.06517     0.27914     0.03882     0.00596     0.00702
 PZ  C   1  -0.00583     0.00069     0.02808     0.01323     0.00772    -0.00061
  
  S  C   2   0.14648     0.07510    -0.06801    -0.15418    -0.12680     0.03342
 PX  C   2   0.07177     0.00805    -0.21466    -0.11217    -0.06303     0.00751
 PY  C   2  -0.04464    -0.03008     0.08995     0.15043     0.22798    -0.11748
 PZ  C   2  -0.00632    -0.00279     0.01340     0.01446     0.01887    -0.00969
  
  S  C   3  -0.03373     0.00235     0.03974    -0.06945    -0.18522     0.10935
 PX  C   3   0.14881     0.06020     0.00526    -0.03717     0.08643    -0.06334
 PY  C   3   0.03785     0.03637    -0.02512    -0.11214    -0.17670     0.07628
 PZ  C   3   0.01225     0.00277    -0.01337    -0.00419     0.00760    -0.00541
  
  S  C   4   0.03600    -0.01043    -0.02035     0.08214     0.18357    -0.07502
 PX  C   4  -0.13162    -0.06816    -0.01161     0.10844     0.08535    -0.02612
 PY  C   4  -0.08791    -0.02880     0.07144    -0.00616    -0.16135     0.11525
 PZ  C   4  -0.00160     0.00059     0.00996     0.00781     0.00963    -0.00292
  
  S  C   5  -0.17908    -0.09690    -0.05976     0.14031     0.12480    -0.02890
 PX  C   5  -0.01309     0.00180    -0.01115    -0.07128    -0.14660     0.05745
 PY  C   5  -0.13191    -0.09494    -0.17773     0.09979     0.15404    -0.06050
 PZ  C   5  -0.01193    -0.00954    -0.02260     0.00505     0.00896    -0.00338
  
  S  C   6  -0.14619    -0.10932    -0.25742     0.03966     0.05197    -0.01672
 PX  C   6   0.11566     0.10035     0.28153    -0.03687    -0.07321     0.02365
 PY  C   6   0.09989     0.03904    -0.09850    -0.12333    -0.09556     0.01555
 PZ  C   6   0.02376     0.01724     0.03591    -0.01041    -0.01250     0.00307
  
  S  C   7  -0.20729    -0.07735    -0.01383     0.03935    -0.10472     0.07374
 PX  C   7  -0.05952    -0.02384    -0.02150    -0.04737    -0.14381     0.09785
 PY  C   7   0.12386     0.04444     0.00900    -0.07338     0.15131    -0.22841
 PZ  C   7  -0.01191    -0.00244     0.00490    -0.00331    -0.00598    -0.00444
  
  S  C   8   0.20799     0.08153    -0.08815    -0.05883     0.11465    -0.09675
 PX  C   8  -0.04159    -0.06067    -0.00632     0.09427    -0.01631     0.14316
 PY  C   8   0.08772     0.02591    -0.08037    -0.00550     0.18028    -0.17037
 PZ  C   8   0.01155    -0.00039    -0.00864     0.00256     0.00693     0.00202
  
  S  C   9   0.01365     0.08010     0.02787    -0.12868     0.01546    -0.17028
 PX  C   9   0.15492     0.06249    -0.05373    -0.03205     0.10140    -0.07515
 PY  C   9   0.03280     0.02437    -0.01432     0.10275     0.02331     0.18824
 PZ  C   9   0.00120    -0.00109    -0.00398     0.01146     0.00457     0.01143
  
  S  C  10  -0.06066    -0.01725     0.01334     0.11536    -0.03650     0.16726
 PX  C  10  -0.15106     0.00795     0.03725    -0.09080    -0.06901    -0.13906
[...]
  S   H   18   -0.0899    0.0298    0.0464    0.0404   -0.0134    0.0016    0.3007    0.0701
  S   H   19   -0.1880    0.2082   -0.2625   -0.1145   -0.1115   -0.0124    0.0642    0.1454
  S   H   20    0.1507    0.2936   -0.2478    0.1770   -0.0878    0.0624   -0.0087   -0.1501
  S   C   21    0.1316    0.0599    0.0305   -0.0316   -0.0051    0.0710   -0.0003    0.0635
  Px  C   21    0.0943    0.0847    0.1539   -0.2622   -0.1778   -0.0973    0.0044   -0.0572
  Py  C   21   -0.1295   -0.0899   -0.0654    0.1070    0.0609    0.3027   -0.0004    0.2161
  Pz  C   21   -0.0295   -0.0215   -0.0279    0.0483    0.0335    0.0370   -0.0007    0.0230
  S   C   22    0.0570    0.0243   -0.0297    0.0468    0.0309   -0.1259   -0.0011   -0.0570
  Px  C   22    0.0871    0.0446   -0.0303    0.0526    0.0319    0.4841    0.0042    0.1570
  Py  C   22    0.0821    0.0346    0.0368   -0.0536   -0.0344   -0.0492   -0.0002    0.0730
  Pz  C   22   -0.0148   -0.0073    0.0068   -0.0116   -0.0075   -0.0829   -0.0007   -0.0244
  S   C   23   -0.0403   -0.0124   -0.0368    0.0541    0.0330    0.1017    0.0011   -0.0408
  Px  C   23   -0.0850   -0.0368   -0.0154    0.0213    0.0054   -0.2223   -0.0045    0.1709
  Py  C   23    0.0098    0.0082   -0.0563    0.0903    0.0561   -0.4463   -0.0059    0.0486
  Pz  C   23    0.0132    0.0062    0.0000   -0.0003   -0.0005   -0.0029    0.0000   -0.0061
  S   C   24   -0.0802   -0.0340   -0.0055    0.0197    0.0220   -0.0900   -0.0019    0.0942
  Px  C   24    0.0430    0.0204    0.0309   -0.0535   -0.0437   -0.1760   -0.0029    0.1527
  Py  C   24   -0.1913   -0.1730    0.1512   -0.2538   -0.1699    0.2102    0.0036   -0.1973
  Pz  C   24   -0.0220   -0.0156    0.0086   -0.0116   -0.0049    0.0157    0.0003   -0.0132
  S   H   25   -0.1933   -0.1181   -0.1250    0.2022    0.1243    0.1939   -0.0019    0.1273
  S   H   26   -0.1040   -0.0516    0.0272   -0.0443   -0.0257   -0.2890   -0.0027   -0.0914
  S   H   27    0.0557    0.0225    0.0509   -0.0763   -0.0419    0.3063    0.0047   -0.0794
  S   H   28    0.1781    0.1322   -0.0884    0.1425    0.0874   -0.1418   -0.0025    0.1289
  S   C   29    0.1168    0.1066    0.1175   -0.2234   -0.1810    0.0125    0.0016    0.0202
  Px  C   29   -0.0995   -0.0555    0.0053   -0.0434   -0.0712   -0.1130    0.0053   -0.0982
  Py  C   29    0.1444    0.1859   -0.0272    0.0778    0.1103   -0.0216   -0.0018   -0.0846
  Pz  C   29   -0.0020   -0.0012   -0.0144    0.0267    0.0228    0.0028   -0.0008    0.0014
  S   C   30   -0.1512   -0.1477    0.1009   -0.1897   -0.1607   -0.0169    0.0019    0.0246
  Px  C   30   -0.0864   -0.1301   -0.0103    0.0340    0.0459    0.0821    0.0016   -0.1748
  Py  C   30    0.1223    0.1083    0.0476   -0.1283   -0.1394    0.0938   -0.0002   -0.0902
  Pz  C   30    0.0134    0.0113   -0.0129    0.0229    0.0206    0.0029    0.0000   -0.0052


   Root No.      73        74        75        76        77        78        79        80

                73 A      74 A      75 A      76 A      77 A      78 A      79 A      80 A   

                 9.314     9.508    10.082    10.671    10.874    11.515    11.720    12.147
  
  S   C    1   -0.0209   -0.0727   -0.0479   -0.0802   -0.0202    0.0317    0.0089    0.0066
  Px  C    1    0.0328   -0.2274    0.0790   -0.1977    0.1507   -0.1406   -0.1228    0.1942
  Py  C    1   -0.1177   -0.1307   -0.2146   -0.1074   -0.1552    0.1738    0.1055   -0.1182
  Pz  C    1   -0.0055   -0.0137   -0.0086   -0.0104   -0.0032    0.0040    0.0019   -0.0010
  S   C    2   -0.0476    0.0862   -0.0788    0.0311   -0.0765    0.0745    0.0220   -0.0079
  Px  C    2    0.0099   -0.2185    0.0088   -0.2325    0.0851   -0.0601   -0.1069    0.2113
  Py  C    2   -0.1598    0.1531   -0.2013   -0.0564   -0.1304    0.1394   -0.0256    0.1197
  Pz  C    2   -0.0118    0.0096   -0.0154   -0.0055   -0.0096    0.0101   -0.0024    0.0103
  S   C    3    0.0044    0.0541   -0.0136    0.0586   -0.0398    0.0368    0.0110   -0.0046
  Px  C    3   -0.2061    0.1095   -0.2256   -0.0854   -0.0199   -0.1403    0.0978   -0.1993
  Py  C    3   -0.0788    0.0146   -0.1511   -0.1051   -0.1577    0.2745   -0.1407    0.3771
  Pz  C    3   -0.0115    0.0016   -0.0124   -0.0086   -0.0009   -0.0052    0.0009   -0.0041
  S   C    4   -0.0155    0.0442    0.0064    0.0570    0.0180   -0.0373   -0.0087   -0.0019
  Px  C    4    0.1252    0.1429    0.2826   -0.0784    0.2015   -0.1278    0.0911   -0.2066
  Py  C    4    0.0800    0.1387    0.1050    0.0235   -0.0670    0.2854   -0.1476    0.3767
  Pz  C    4    0.0013    0.0049    0.0041    0.0040    0.0024   -0.0018    0.0019   -0.0013
  S   C    5   -0.0010    0.0860    0.0672    0.0525    0.0631   -0.0769   -0.0211    0.0045
  Px  C    5    0.1038    0.0578    0.2007   -0.1454    0.1395   -0.0597    0.1095   -0.2222
  Py  C    5    0.0511   -0.2754   -0.0866   -0.2062   -0.0840    0.1542    0.0867   -0.1016
  Pz  C    5    0.0002   -0.0147   -0.0088   -0.0094   -0.0073    0.0096    0.0032   -0.0024
  S   C    6    0.0545   -0.0593    0.0595   -0.0694    0.0453   -0.0179    0.0008   -0.0079
  Px  C    6    0.1870   -0.1350    0.1796   -0.1417    0.1147   -0.0492   -0.0062   -0.0033
  Py  C    6   -0.0287   -0.1434   -0.1606   -0.1819   -0.1601    0.2348    0.1761   -0.2259
  Pz  C    6    0.0090   -0.0102    0.0047   -0.0120    0.0011    0.0041    0.0055   -0.0081
  S   C    7    0.1089   -0.0117    0.0618    0.0867   -0.0461    0.0802    0.0203    0.0300
  Px  C    7   -0.1178    0.1304   -0.1514    0.0055   -0.0529   -0.0689    0.1390   -0.2015
  Py  C    7    0.2659    0.0212    0.0665    0.2291   -0.1391    0.1374    0.1306   -0.0200
  Pz  C    7    0.0158    0.0084   -0.0005    0.0182   -0.0137    0.0091    0.0160   -0.0101
  S   C    8   -0.0847   -0.0490   -0.0732    0.0688    0.0182   -0.0953   -0.0339   -0.0366
  Px  C    8   -0.1861    0.0286   -0.0115    0.2060    0.0965   -0.1027   -0.1932    0.0971
  Py  C    8    0.2026    0.1903    0.1983   -0.0862    0.0073    0.1663   -0.0143    0.1600
  Pz  C    8   -0.0194    0.0036   -0.0011    0.0216    0.0104   -0.0122   -0.0193    0.0087
  S   C    9    0.0156   -0.0370   -0.0305   -0.0031   -0.0096   -0.0281   -0.0030   -0.0047
  Px  C    9   -0.2621   -0.0161   -0.0583    0.2526    0.1308   -0.1903   -0.2041    0.0617
  Py  C    9   -0.1380   -0.0599    0.1315    0.1780    0.0711    0.1170    0.4171    0.0640
  Pz  C    9   -0.0169    0.0022   -0.0029    0.0140    0.0090   -0.0112   -0.0226    0.0033
  S   C   10    0.0113   -0.0386    0.0444    0.0070   -0.0007    0.0353    0.0070    0.0086
  Px  C   10    0.2785    0.0358   -0.1027    0.2129   -0.2080   -0.0196   -0.2461   -0.1192
  Py  C   10    0.1307    0.0677    0.0936    0.1562   -0.1054    0.2041    0.3865   -0.0380
  Pz  C   10    0.0192    0.0075   -0.0058    0.0163   -0.0141    0.0037    0.0068   -0.0084
  S   C   11   -0.0909   -0.0517    0.0836   -0.0565    0.0494    0.0623    0.0212    0.0104
  Px  C   11    0.2053   -0.0167   -0.0308    0.1938   -0.1494    0.0426   -0.2353   -0.1132
  Py  C   11   -0.2159   -0.1781    0.2072   -0.0608    0.0609    0.1833   -0.0585   -0.0595
  Pz  C   11   -0.0223   -0.0148    0.0173   -0.0063    0.0056    0.0127   -0.0021   -0.0038
  S   H   12   -0.1750   -0.0856    0.1129   -0.0725    0.0820    0.0922    0.0401   -0.0035
  S   C   13    0.0923   -0.0216   -0.0668   -0.0823   -0.0386   -0.0581   -0.0264   -0.0031
  Px  C   13    0.1240   -0.1581   -0.1411    0.0437   -0.0137   -0.1983    0.1661    0.1087
  Py  C   13   -0.2719    0.0046    0.1161    0.2500    0.0921    0.0508    0.1639    0.0389
  Pz  C   13    0.0234   -0.0112   -0.0163   -0.0104   -0.0062   -0.0165    0.0029    0.0053
  S   H   14    0.1573   -0.0229    0.0706    0.0982   -0.0520    0.0899    0.0321    0.0477
  S   H   15   -0.0486   -0.1463   -0.0794   -0.1209   -0.0256    0.0395    0.0101    0.0071
  S   H   16   -0.0855    0.1256   -0.1059    0.0247   -0.0887    0.0898    0.0126    0.0120
  S   H   17    0.0032    0.1526    0.0975    0.0622    0.0803   -0.0957   -0.0142   -0.0111
  S   H   18    0.1156   -0.0689    0.1161   -0.0740    0.0748   -0.0400   -0.0082    0.0026
  S   H   19   -0.1550   -0.0858   -0.0991    0.0883    0.0255   -0.1113   -0.0470   -0.0548
  S   H   20    0.1774   -0.0496   -0.1030   -0.1029   -0.0572   -0.0943   -0.0368    0.0134
  S   C   21    0.0168    0.0829   -0.0758   -0.0147    0.1126    0.0276    0.0323    0.0264
  Px  C   21   -0.0966   -0.0408    0.1560   -0.1687   -0.1574   -0.1062    0.1045    0.1537
  Py  C   21   -0.0063    0.2769   -0.1136   -0.1398    0.1987    0.0281    0.1137    0.1348
  Pz  C   21    0.0134    0.0243   -0.0292    0.0142    0.0336    0.0161   -0.0082   -0.0136
  S   C   22    0.0450   -0.0730   -0.0462    0.0818    0.0398    0.0115    0.0051   -0.0042
  Px  C   22   -0.1332    0.1841    0.1169   -0.1708   -0.0890   -0.0213   -0.0143    0.0014
  Py  C   22    0.0464    0.1218   -0.1712   -0.0718    0.2855    0.0216    0.2129    0.2391
  Pz  C   22    0.0224   -0.0276   -0.0224    0.0255    0.0204    0.0029    0.0088    0.0071
  S   C   23   -0.0278   -0.0695    0.0580    0.0605   -0.0701   -0.0141   -0.0105   -0.0056
  Px  C   23    0.0014    0.2479    0.0275   -0.2426   -0.1020   -0.0010   -0.1586   -0.1797
  Py  C   23    0.1303    0.0941   -0.2156   -0.0137    0.2571    0.0288    0.1314    0.1340
  Pz  C   23    0.0055   -0.0072   -0.0119    0.0103    0.0184    0.0015    0.0150    0.0164
  S   C   24   -0.0292    0.1109    0.0569   -0.0652   -0.0978   -0.0309   -0.0275   -0.0224
  Px  C   24    0.0115    0.2334   -0.0273   -0.2455    0.0095    0.0416   -0.1402   -0.1707
  Py  C   24    0.1031   -0.1832   -0.1572    0.0101    0.2260    0.0998   -0.0364   -0.0594
  Pz  C   24    0.0005   -0.0188   -0.0014    0.0167    0.0057    0.0011    0.0074    0.0079
  S   H   25    0.0273    0.1502   -0.1062   -0.0136    0.1578    0.0566    0.0219    0.0179
  S   H   26    0.0805   -0.1070   -0.0707    0.0992    0.0561    0.0144    0.0095    0.0016
  S   H   27   -0.0680   -0.1276    0.0986    0.0829   -0.0941   -0.0152   -0.0131   -0.0085
  S   H   28   -0.0454    0.1413    0.0676   -0.0659   -0.1102   -0.0429   -0.0173   -0.0139
  S   C   29   -0.0251    0.0456   -0.0027   -0.0653    0.0418    0.0023    0.0297    0.0285
  Px  C   29   -0.1205   -0.1041    0.2315   -0.1357   -0.2668   -0.1247    0.0731    0.1241
  Py  C   29   -0.1111   -0.1393    0.1440    0.0592    0.1831    0.3491   -0.1994   -0.1714
  Pz  C   29    0.0107   -0.0016   -0.0122    0.0171    0.0149    0.0140   -0.0126   -0.0145
  S   C   30    0.0050    0.0548   -0.0036   -0.0705   -0.0131    0.0010   -0.0219   -0.0188
  Px  C   30    0.1873   -0.1499   -0.2124   -0.0453   -0.0339   -0.2442    0.1248    0.0873
  Py  C   30    0.0414   -0.0573   -0.1155   -0.0279    0.3550    0.2963   -0.1694   -0.1891
  Pz  C   30    0.0051   -0.0075   -0.0065    0.0035   -0.0045   -0.0140    0.0108    0.0083


   Root No.      81        82        83        84

                81 A      82 A      83 A      84 A   

                12.559    12.811    13.181    14.468
  
  S   C    1   -0.0513    0.0483    0.0029    0.0381
  Px  C    1    0.0052    0.3370   -0.1171    0.1065
  Py  C    1   -0.1376   -0.1098    0.0894    0.0187
  Pz  C    1   -0.0060    0.0032    0.0010    0.0032
  S   C    2   -0.0263   -0.0182    0.0201    0.0220
  Px  C    2   -0.0440    0.3701   -0.1043    0.1511
  Py  C    2   -0.0852    0.1554   -0.0008    0.1157
  Pz  C    2   -0.0054    0.0139   -0.0015    0.0087
  S   C    3    0.0018   -0.0058   -0.0014    0.0267
  Px  C    3   -0.1147    0.3079   -0.1808    0.2282
  Py  C    3   -0.0556    0.1754    0.0590    0.0993
  Pz  C    3   -0.0072    0.0172   -0.0076    0.0122
  S   C    4    0.0038   -0.0016    0.0100    0.0251
  Px  C    4   -0.2899   -0.0015    0.1273    0.1793
  Py  C    4   -0.1401    0.0046    0.2304    0.1117
  Pz  C    4   -0.0021    0.0004    0.0025    0.0046
  S   C    5    0.0148    0.0306   -0.0153    0.0202
  Px  C    5   -0.3094   -0.0231    0.1284    0.1511
  Py  C    5   -0.1954   -0.0844    0.1135    0.0442
  Pz  C    5   -0.0064   -0.0035    0.0038    0.0004
  S   C    6   -0.0598    0.0312    0.0161    0.0358
  Px  C    6   -0.1070    0.0733    0.0233    0.0680
  Py  C    6   -0.2796   -0.1929    0.1782    0.0501
  Pz  C    6   -0.0133   -0.0029    0.0062    0.0042
  S   C    7    0.0476   -0.0388    0.0081    0.0092
  Px  C    7   -0.0819    0.2794   -0.1796    0.2509
  Py  C    7    0.0668    0.0954   -0.0714    0.1499
  Pz  C    7    0.0012    0.0184   -0.0127    0.0222
  S   C    8    0.0351   -0.0319   -0.0108    0.0128
  Px  C    8   -0.2069   -0.0908    0.2364    0.2327
  Py  C    8   -0.1675    0.0353    0.1588    0.1024
  Pz  C    8   -0.0180   -0.0086    0.0209    0.0212
  S   C    9    0.0548   -0.0198   -0.0020    0.0032
  Px  C    9   -0.1480   -0.1146    0.2295    0.2453
  Py  C    9    0.1762    0.1412    0.1606    0.1247
  Pz  C    9   -0.0178   -0.0094    0.0129    0.0142
  S   C   10    0.0428   -0.0465   -0.0078    0.0040
  Px  C   10   -0.0839   -0.0410   -0.1985    0.2870
  Py  C   10    0.1234    0.2371   -0.0650    0.1424
  Pz  C   10   -0.0009    0.0121   -0.0115    0.0190
  S   C   11    0.0558   -0.0463   -0.0198    0.0037
  Px  C   11   -0.0272   -0.1035   -0.2155    0.2942
  Py  C   11    0.1176   -0.1162   -0.1486    0.1577
  Pz  C   11    0.0079   -0.0059   -0.0079    0.0087
  S   H   12    0.0601   -0.0145   -0.0112   -0.0043
  S   C   13    0.0466   -0.0334    0.0004   -0.0052
  Px  C   13    0.1970   -0.0523    0.2721    0.2385
  Py  C   13    0.0345    0.0653    0.1434    0.1365
  Pz  C   13    0.0125   -0.0067    0.0116    0.0095
  S   H   14    0.0477   -0.0157    0.0140    0.0051
  S   H   15   -0.0642    0.0521    0.0072    0.0391
  S   H   16   -0.0289   -0.0174    0.0267    0.0144
  S   H   17    0.0186    0.0329   -0.0245    0.0126
  S   H   18   -0.0485    0.0469    0.0050    0.0333
  S   H   19    0.0166   -0.0377   -0.0152    0.0098
  S   H   20    0.0265   -0.0448    0.0075    0.0013
  S   C   21   -0.0219   -0.0082   -0.0169   -0.0280
  Px  C   21    0.0826   -0.2742   -0.1824    0.2237
  Py  C   21   -0.0004   -0.1847   -0.1654    0.0891
  Pz  C   21   -0.0097    0.0261    0.0159   -0.0236
  S   C   22   -0.0507    0.0470    0.0148   -0.0492
  Px  C   22    0.1008   -0.0803   -0.0165    0.0873
  Py  C   22   -0.0688   -0.2656   -0.2652    0.1084
  Pz  C   22   -0.0178    0.0047   -0.0049   -0.0099
  S   C   23   -0.0593    0.0373   -0.0072   -0.0451
  Px  C   23    0.2900    0.0563    0.2209    0.0921
  Py  C   23   -0.0462   -0.1289   -0.1284    0.0442
  Pz  C   23   -0.0171   -0.0102   -0.0185   -0.0026
  S   C   24    0.0084    0.0211    0.0175   -0.0261
  Px  C   24    0.3321    0.0222    0.2189    0.1406
  Py  C   24    0.1682   -0.0311    0.0755    0.1219
  Pz  C   24   -0.0160   -0.0004   -0.0098   -0.0060
  S   H   25   -0.0213   -0.0133   -0.0321   -0.0145
  S   H   26   -0.0571    0.0400    0.0036   -0.0434
  S   H   27   -0.0632    0.0433   -0.0032   -0.0444
  S   H   28    0.0093    0.0180    0.0240   -0.0151
  S   C   29    0.0131   -0.0240    0.0001   -0.0201
  Px  C   29    0.0866   -0.2568   -0.1787    0.2537
  Py  C   29    0.0990   -0.0726   -0.1883    0.1691
  Pz  C   29   -0.0056    0.0178    0.0081   -0.0109
  S   C   30    0.0191   -0.0014   -0.0112   -0.0228
  Px  C   30    0.2357   -0.0745    0.2616    0.2181
  Py  C   30    0.2114    0.0099    0.0472    0.1139
  Pz  C   30    0.0053   -0.0030    0.0107    0.0083


              NET ATOMIC CHARGES AND DIPOLE CONTRIBUTIONS

  ATOM NO.   TYPE          CHARGE      No. of ELECS.   s-Pop       p-Pop       
    1          C          -0.021788        4.0218     1.08866     2.93313
    2          C          -0.025065        4.0251     1.09995     2.92512
    3          C           0.019381        3.9806     1.05972     2.92090
    4          C           0.007058        3.9929     1.07652     2.91642
    5          C          -0.036043        4.0360     1.11206     2.92398
    6          C          -0.028689        4.0287     1.09874     2.92995
    7          C          -0.030253        4.0303     1.10486     2.92540
    8          C          -0.033945        4.0339     1.10210     2.93185
    9          C           0.009321        3.9907     1.07287     2.91781
   10          C           0.010895        3.9891     1.07213     2.91697
   11          C          -0.034350        4.0343     1.09334     2.94101
   12          H           0.021279        0.9787     0.97872
   13          C          -0.037660        4.0377     1.10888     2.92878
   14          H           0.020880        0.9791     0.97912
   15          H           0.027238        0.9728     0.97276
   16          H           0.019105        0.9809     0.98090
   17          H           0.025822        0.9742     0.97418
   18          H           0.022786        0.9772     0.97721
   19          H           0.032149        0.9679     0.96785
   20          H           0.024323        0.9757     0.97568
   21          C          -0.018553        4.0186     1.07927     2.93928
   22          C          -0.021506        4.0215     1.09070     2.93081
   23          C          -0.022236        4.0222     1.08997     2.93227
   24          C          -0.022441        4.0224     1.10865     2.91379
   25          H           0.015981        0.9840     0.98402
   26          H           0.019130        0.9809     0.98087
   27          H           0.026723        0.9733     0.97328
   28          H           0.014886        0.9851     0.98511
   29          C           0.013333        3.9867     1.06729     2.91938
   30          C           0.002240        3.9978     1.08652     2.91124
 DIPOLE           X         Y         Z       TOTAL
 POINT-CHG.    -0.065    -0.025    -0.074     0.101
 HYBRID        -0.087     0.142    -0.421     0.453
 SUM           -0.151     0.116    -0.495     0.531


          ATOMIC ORBITAL ELECTRON POPULATIONS

     Atom    s        px        py        pz   
    1  C   1.08866   0.97682   0.95691   0.99940
    2  C   1.09995   0.97409   0.94345   1.00758
    3  C   1.05972   0.96923   0.96506   0.98660
    4  C   1.07652   0.96524   0.96979   0.98139
    5  C   1.11206   0.97002   0.95120   1.00276
    6  C   1.09874   0.94313   0.98776   0.99906
    7  C   1.10486   0.96607   0.94463   1.01471
    8  C   1.10210   0.97138   0.95036   1.01011
    9  C   1.07287   0.97006   0.96971   0.97805
   10  C   1.07213   0.96337   0.96960   0.98401
   11  C   1.09334   0.95682   0.96178   1.02242
   12  H   0.97872
   13  C   1.10888   0.96125   0.95802   1.00951
   14  H   0.97912
   15  H   0.97276
   16  H   0.98090
   17  H   0.97418
   18  H   0.97721
   19  H   0.96785
   20  H   0.97568
   21  C   1.07927   0.97223   0.96270   1.00435
   22  C   1.09070   0.94214   0.99178   0.99689
   23  C   1.08997   0.97813   0.95497   0.99917
   24  C   1.10865   0.97072   0.93805   1.00502
   25  H   0.98402
   26  H   0.98087
   27  H   0.97328
   28  H   0.98511
   29  C   1.06729   0.97118   0.96822   0.97997
   30  C   1.08652   0.96610   0.96370   0.98144

 **********************
 *                    *
 * JOB ENDED NORMALLY *
 *                    *
 **********************



 TOTAL JOB TIME:             3.40 SECONDS

 == MOPAC DONE ==


          MOPAC Job: "./tetraceneTraj/tetracene_1029.mop" ended normally on Feb 15, 2023, at 11:29.

rm: cannot remove ./tetraceneTraj/tetracene_1029.cim: No such file or directory
rm: cannot remove ./tetraceneTraj/tetracene_1029.end: No such file or directory
rm: cannot remove ./tetraceneTraj/tetracene_1029.log: No such file or directory
rm: cannot remove ./tetraceneTraj/tetracene_1029.temp: No such file or directory
rm: cannot remove ./tetraceneTraj/tetracene_1029.ple: No such file or directory
rm: cannot remove ./tetraceneTraj/tetracene_1029.sts: No such file or directory
