 *******************************************************************************
 ** Site#:    0         For non-commercial use only    Version 20.173L 64BITS **
 *******************************************************************************
 ** Cite this program as: MOPAC2016, Version: 20.173L, James J. P. Stewart,   **
 ** Stewart Computational Chemistry, web-site: HTTP://OpenMOPAC.net.          **
 *******************************************************************************
 **                                                                           **
 **                                MOPAC2016                                  **
 **                                                                           **
 *******************************************************************************

                              INDO CALCULATION RESULTS

 *******************************************************************************
 *  CALCULATION DONE:                                Wed Feb 15 11:30:35 2023  *
 *  INDO       - The INDO Hamiltonian to be used
 *
 *
 *
 *                 CHARGE ON SYSTEM = 0
 *
 *
 *
 *  C.I.=(N,M) - 3 DOUBLY FILLED LEVELS USED IN A C.I. INVOLVING 6 M.O.'S
 *  T=         - A TIME OF 172800.0 SECONDS REQUESTED
 *  DUMP=N     - RESTART FILE WRITTEN EVERY 7200.0 SECONDS REQUESTED
 *  RELSCF     - DEFAULT SCF CRITERION MULTIPLIED BY 0.0000
 *              (DEFAULT SCF CRITERION = 0.00010)
 *  ALLVEC     - PRINT ALL EIGENVECTORS
 **********
 *  WARNING: Specified print options may not behave as expected with INDO
 **********
 *******************************************************************************
INDO C.I.=(6,3) AllVEC CHARGE=0 RELSCF=0.000001


   ATOM   CHEMICAL          X               Y               Z
  NUMBER   SYMBOL      (ANGSTROMS)     (ANGSTROMS)     (ANGSTROMS)
 
     1       C         18.49126145  *  19.50935810  *  22.31476801  *
     2       C         19.88260562  *  19.44085925  *  22.34959814  *
     3       C         20.66515184  *  20.67446435  *  22.46051141  *
     4       C         19.97280700  *  21.99047956  *  22.40541976  *
     5       C         18.53049421  *  21.96863082  *  22.38901924  *
     6       C         17.81602759  *  20.74965462  *  22.40527830  *
     7       C         22.06000257  *  20.61656555  *  22.54720280  *
     8       C         20.71330971  *  23.14059059  *  22.50144765  *
     9       C         22.11963461  *  23.10552984  *  22.61122288  *
    10       C         22.83947607  *  21.81930133  *  22.60237134  *
    11       C         24.26697448  *  21.81436246  *  22.62160853  *
    12       H         24.81536570  *  20.78673909  *  22.53177599  *
    13       C         22.92138920  *  24.32831562  *  22.57926139  *
    14       H         22.54790576  *  19.61317325  *  22.39582269  *
    15       H         17.91468442  *  18.59204732  *  22.13269701  *
    16       H         20.46065266  *  18.53526079  *  22.20910384  *
    17       H         18.04817152  *  22.93295744  *  22.24997272  *
    18       H         16.71365773  *  20.82811907  *  22.31991250  *
    19       H         20.23386307  *  24.12946087  *  22.50205323  *
    20       H         22.36959361  *  25.25787909  *  22.39237559  *
    21       C         26.47013607  *  23.04829225  *  22.47094801  *
    22       C         27.15694984  *  24.28043095  *  22.43860078  *
    23       C         26.52394944  *  25.57627152  *  22.52688452  *
    24       C         25.14866372  *  25.60735015  *  22.63897771  *
    25       H         26.97794380  *  22.08021183  *  22.35655752  *
    26       H         28.25158325  *  24.20137956  *  22.30913426  *
    27       H         27.19339857  *  26.50207535  *  22.51772388  *
    28       H         24.55727900  *  26.56158488  *  22.57716585  *
    29       C         25.03532672  *  22.99680099  *  22.60494274  *
    30       C         24.37877618  *  24.33098759  *  22.65840213  *
 


          CARTESIAN COORDINATES 

    NO.       ATOM           X           Y           Z

     1         C         18.4913     19.5094     22.3148
     2         C         19.8826     19.4409     22.3496
     3         C         20.6652     20.6745     22.4605
     4         C         19.9728     21.9905     22.4054
     5         C         18.5305     21.9686     22.3890
     6         C         17.8160     20.7497     22.4053
     7         C         22.0600     20.6166     22.5472
     8         C         20.7133     23.1406     22.5014
     9         C         22.1196     23.1055     22.6112
    10         C         22.8395     21.8193     22.6024
    11         C         24.2670     21.8144     22.6216
    12         H         24.8154     20.7867     22.5318
    13         C         22.9214     24.3283     22.5793
    14         H         22.5479     19.6132     22.3958
    15         H         17.9147     18.5920     22.1327
    16         H         20.4607     18.5353     22.2091
    17         H         18.0482     22.9330     22.2500
    18         H         16.7137     20.8281     22.3199
    19         H         20.2339     24.1295     22.5021
    20         H         22.3696     25.2579     22.3924
    21         C         26.4701     23.0483     22.4709
    22         C         27.1569     24.2804     22.4386
    23         C         26.5239     25.5763     22.5269
    24         C         25.1487     25.6074     22.6390
    25         H         26.9779     22.0802     22.3566
    26         H         28.2516     24.2014     22.3091
    27         H         27.1934     26.5021     22.5177
    28         H         24.5573     26.5616     22.5772
    29         C         25.0353     22.9968     22.6049
    30         C         24.3788     24.3310     22.6584

           Empirical Formula: C18 H12  =    30 atoms



      MOLECULAR POINT GROUP   :   Cs  


      RHF CALCULATION, NO. OF DOUBLY OCCUPIED LEVELS = 42

 WARNING: INDO only performs single-point calculations
  SCF CRITERION =    0.1000E-09

 Summary of symmetry occupancy in each shell:

 SHELL     
    1   42
    v   42
 TOTAL  84




    ROOT NO.    1           2           3           4           5           6

           -44.49277   -42.70222   -40.27059   -36.84765   -35.60334   -33.96081
  
  
  S  C   1   0.15906    -0.18971    -0.28345     0.25296     0.03630    -0.13142
 PX  C   1   0.04104    -0.04181    -0.04439     0.01337     0.06250    -0.06560
 PY  C   1   0.05691    -0.06440    -0.08665     0.05660    -0.04043     0.03419
 PZ  C   1   0.00339    -0.00365    -0.00436     0.00186    -0.00068     0.00096
  
  S  C   2   0.19388    -0.19684    -0.22472     0.13129     0.22071    -0.23846
 PX  C   2  -0.00726     0.02822     0.07867    -0.09879     0.07672    -0.01389
 PY  C   2   0.07640    -0.07027    -0.06225     0.00555     0.02380    -0.00623
 PZ  C   2   0.00260    -0.00173     0.00037    -0.00368     0.00206     0.00115
  
  S  C   3   0.33139    -0.22381    -0.05931    -0.13429     0.26204    -0.13155
 PX  C   3  -0.00169     0.05613     0.14465    -0.10929     0.11738    -0.03187
 PY  C   3   0.06362    -0.01229     0.06956    -0.10623    -0.10810     0.11855
 PZ  C   3  -0.00213     0.00515     0.01052    -0.00772    -0.00063     0.00397
  
  S  C   4   0.33867    -0.22702    -0.05051    -0.20020    -0.18981     0.19772
 PX  C   4   0.05202     0.02118     0.13755    -0.13664     0.07857    -0.06590
 PY  C   4  -0.03280     0.05184     0.08696    -0.07330    -0.13333     0.08323
 PZ  C   4   0.00975    -0.00346     0.00718    -0.01311    -0.00332     0.00362
  
  S  C   5   0.19953    -0.20024    -0.21947     0.06971    -0.24906     0.23501
 PX  C   5   0.06447    -0.04653    -0.00864    -0.06495    -0.03537     0.04121
 PY  C   5  -0.04594     0.06017     0.09854    -0.09325    -0.01851     0.02959
 PZ  C   5   0.00045     0.00053     0.00270    -0.00366     0.00194    -0.00150
  
  S  C   6   0.15871    -0.18873    -0.27966     0.23169    -0.12530     0.06656
 PX  C   6   0.07055    -0.07718    -0.09704     0.05299    -0.01530     0.00255
 PY  C   6   0.00369     0.00011     0.01190    -0.03615    -0.06121     0.08790
 PZ  C   6  -0.00379     0.00502     0.00859    -0.00878     0.00278    -0.00004
  
  S  C   7   0.26507    -0.07638     0.15313    -0.14745     0.38579    -0.09869
 PX  C   7  -0.05097     0.06372     0.03487     0.08365    -0.02743     0.06509
 PY  C   7   0.08500     0.00106     0.09138    -0.05028     0.00251     0.04028
 PZ  C   7  -0.00605     0.00461     0.00128     0.00475    -0.01199     0.00731
  
  S  C   8   0.28188    -0.08318     0.16963    -0.25637    -0.30577     0.11050
 PX  C   8   0.04144     0.03723     0.09576     0.00496     0.01093    -0.10015
 PY  C   8  -0.09085     0.05425    -0.02023     0.09718    -0.02660    -0.05878
 PZ  C   8   0.00020     0.00245     0.00449     0.00142     0.00082    -0.00641
  
  S  C   9   0.32276     0.07069     0.30032    -0.00187    -0.20757    -0.09070
 PX  C   9  -0.00570     0.08875     0.00679     0.20140     0.05457    -0.05197
 PY  C   9  -0.06346     0.03120    -0.04819     0.07226    -0.13819    -0.06872
 PZ  C   9  -0.01023     0.00104    -0.00848     0.00830     0.00847     0.00093
  
  S  C  10   0.31673     0.07979     0.29372     0.07938     0.20860     0.02632
 PX  C  10  -0.05324     0.07754    -0.03621     0.19333     0.01002     0.06454
 PY  C  10   0.03640     0.05479     0.03803     0.08453    -0.14779    -0.01532
 PZ  C  10  -0.00541     0.00194    -0.00328     0.00621    -0.00531     0.00076
  
  S  C  11   0.19381     0.19204     0.13154     0.29546     0.19017     0.22861
 PX  C  11  -0.04995     0.01138    -0.09094    -0.01951    -0.02686     0.08292
 PY  C  11   0.05133     0.08407     0.00874     0.10294    -0.03846     0.03167
 PZ  C  11  -0.00382    -0.00334    -0.00160    -0.00299    -0.00552    -0.00631
  
  S  H  12   0.05521     0.05370     0.03438     0.08357     0.10234     0.11271
  
  S  C  13   0.18996     0.17847     0.13270     0.19234    -0.28131    -0.27685
 PX  C  13   0.00942     0.07062    -0.04622     0.07474     0.02639    -0.04813
 PY  C  13  -0.06867    -0.03647    -0.07850    -0.07030     0.01879    -0.02650
 PZ  C  13  -0.00038     0.00123    -0.00007     0.00504     0.00269     0.00060
  
  S  H  14   0.07732    -0.02315     0.03774    -0.02651     0.18010    -0.05252
  
  S  H  15   0.04110    -0.05228    -0.08669     0.09311     0.01776    -0.06030
  
  S  H  16   0.06090    -0.05848    -0.06081     0.03435     0.12333    -0.11966
  
  S  H  17   0.06232    -0.05964    -0.05935     0.00514    -0.12526     0.12008
  
  S  H  18   0.04053    -0.05130    -0.08406     0.08248    -0.05400     0.03364
  
  S  H  19   0.08579    -0.02316     0.05061    -0.07831    -0.16696     0.04707
  
  S  H  20   0.06085     0.05237     0.04183     0.03995    -0.13960    -0.13467
  
  S  C  21   0.10702     0.27474    -0.20863    -0.08072     0.12402     0.32731
 PX  C  21  -0.03645    -0.07065     0.01659    -0.06347    -0.01309    -0.04703
 PY  C  21   0.02266     0.07557    -0.08582    -0.09774    -0.00504    -0.03485
 PZ  C  21   0.00272     0.00639    -0.00335     0.00233     0.00072     0.00221
  
  S  C  22   0.08227     0.24849    -0.25296    -0.24858     0.07231     0.11159
 PX  C  22  -0.03594    -0.10000     0.08653     0.05608    -0.00865    -0.00286
 PY  C  22  -0.00324    -0.00364    -0.00766    -0.03815    -0.02816    -0.11917
 PZ  C  22   0.00268     0.00784    -0.00729    -0.00560     0.00007    -0.00271
  
  S  C  23   0.07766     0.23732    -0.24766    -0.27118    -0.00277    -0.15493
 PX  C  23  -0.02108    -0.05659     0.04533     0.02542     0.02691     0.08906
 PY  C  23  -0.02932    -0.08535     0.08056     0.06559    -0.01950    -0.03832
 PZ  C  23   0.00064     0.00184    -0.00151    -0.00068    -0.00186    -0.00658
  
  S  C  24   0.09719     0.25537    -0.20895    -0.15971    -0.09345    -0.31235
 PX  C  24   0.00434     0.03677    -0.06865    -0.10416     0.04177     0.02911
 PY  C  24  -0.03935    -0.09439     0.06110     0.01249     0.01255     0.01685
 PZ  C  24  -0.00327    -0.00908     0.00846     0.00843     0.00139     0.00749
  
  S  H  25   0.03322     0.08187    -0.05721    -0.00855     0.06115     0.16553
  
  S  H  26   0.02120     0.06801    -0.07634    -0.08854     0.03107     0.05649
  
  S  H  27   0.01816     0.05930    -0.06897    -0.09141    -0.00125    -0.06145
  
  S  H  28   0.02868     0.07123    -0.05378    -0.04171    -0.05281    -0.15190
  
  S  C  29   0.19729     0.35045    -0.07678     0.21205     0.08352     0.25397
 PX  C  29  -0.03966     0.00171    -0.11397    -0.15340     0.04444     0.10092
 PY  C  29   0.01533     0.06426    -0.07658    -0.07685    -0.06749    -0.12479
 PZ  C  29  -0.00209    -0.00568     0.00532     0.00350    -0.00437    -0.01077
  
  S  C  30   0.18775     0.33743    -0.08619     0.13304    -0.14409    -0.22696
 PX  C  30  -0.00761     0.05619    -0.12498    -0.12814     0.07682     0.08185
 PY  C  30  -0.04492    -0.04309    -0.05062    -0.12259    -0.04043    -0.14368
 PZ  C  30  -0.00662    -0.01209     0.00397    -0.00247     0.00438     0.00539




    ROOT NO.    7           8           9          10          11          12

           -31.70333   -31.31137   -28.63115   -28.25012   -26.81464   -25.96946
  
  
  S  C   1   0.10775     0.29652     0.18719    -0.23985    -0.02912    -0.19244
 PX  C   1   0.11622    -0.07089     0.12008     0.16363     0.00202    -0.06274
 PY  C   1  -0.07697     0.01227    -0.10910    -0.00073    -0.06622     0.12403
 PZ  C   1  -0.00210    -0.00381    -0.00608     0.00672    -0.00696     0.01119
  
  S  C   2   0.28110    -0.00902     0.19098     0.15195     0.11190    -0.04510
 PX  C   2   0.00390    -0.15219    -0.13309     0.11474     0.09828     0.17961
 PY  C   2  -0.00122    -0.07620    -0.06251     0.07514    -0.10092     0.10733
 PZ  C   2  -0.00293    -0.00916    -0.01189     0.00592    -0.00688     0.01584
  
  S  C   3   0.12136    -0.23319    -0.10164     0.10384    -0.10443     0.18179
 PX  C   3  -0.05336     0.01998    -0.14411    -0.14074     0.11774     0.04960
 PY  C   3  -0.09151    -0.00520     0.01194    -0.12028    -0.21846    -0.07745
 PZ  C   3  -0.00868     0.00471    -0.00898    -0.01522    -0.00197     0.00029
  
  S  C   4  -0.02751    -0.23996     0.13142     0.08069    -0.13794    -0.15646
 PX  C   4   0.10764     0.05240     0.04153    -0.18268    -0.11151     0.06129
 PY  C   4   0.00370     0.04030     0.11625    -0.07104     0.19335    -0.12863
 PZ  C   4   0.00346    -0.00108     0.00621    -0.01106    -0.00991    -0.00117
  
  S  C   5  -0.26477    -0.11133    -0.16659     0.16266     0.13486     0.01918
 PX  C   5   0.05117    -0.13007     0.15419     0.10788    -0.08520    -0.17511
 PY  C   5   0.03085    -0.07107     0.08804     0.04215     0.10996    -0.12505
 PZ  C   5   0.00464    -0.00207     0.00511    -0.00097    -0.00930    -0.00087
  
  S  C   6  -0.20966     0.22816    -0.23681    -0.21746     0.02985     0.19220
 PX  C   6   0.00712    -0.02342     0.04241     0.08112    -0.07198    -0.04959
 PY  C   6  -0.10827    -0.11590    -0.13770     0.14919     0.07520     0.11316
 PZ  C   6   0.00494    -0.01236     0.00467     0.01341    -0.00304    -0.00173
  
  S  C   7  -0.14769    -0.03941    -0.23481    -0.09685     0.20675    -0.02417
 PX  C   7  -0.14826     0.12052     0.06102    -0.01268     0.09573    -0.20685
 PY  C   7  -0.08851     0.08135     0.01257    -0.10811    -0.16988    -0.08619
 PZ  C   7  -0.00732     0.01072     0.00813    -0.00471    -0.01387    -0.01215
  
  S  C   8   0.17019     0.06542     0.21365    -0.11619     0.18885    -0.01678
 PX  C   8   0.08524     0.17540    -0.07741    -0.07199    -0.05107     0.20328
 PY  C   8   0.05143     0.07951    -0.03314     0.06514     0.20580     0.08282
 PZ  C   8   0.00545     0.01287    -0.00508    -0.00495    -0.00116     0.01568
  
  S  C   9   0.14571     0.28182    -0.02778     0.02097    -0.06263     0.18472
 PX  C   9  -0.09064    -0.01956    -0.08648     0.17926    -0.12761    -0.05183
 PY  C   9   0.13801    -0.00943    -0.04855     0.12171     0.21299     0.08228
 PZ  C   9  -0.00913    -0.00702    -0.00233     0.00640    -0.00749    -0.00689
  
  S  C  10  -0.28218     0.19544     0.00499     0.00116    -0.07606    -0.17506
 PX  C  10  -0.07119    -0.03259     0.13724     0.17571     0.10631    -0.06516
 PY  C  10   0.10960     0.04964     0.05112     0.09110    -0.21006     0.13731
 PZ  C  10  -0.00003     0.00072     0.00441     0.00650    -0.00710    -0.00111
  
  S  C  11  -0.16941    -0.00986     0.26732     0.10957     0.15669     0.00986
 PX  C  11   0.15734    -0.10826     0.04188    -0.08817     0.06920     0.19510
 PY  C  11   0.07336    -0.06003     0.03044     0.02846    -0.15431     0.12882
 PZ  C  11   0.00114    -0.00001    -0.00307     0.00176    -0.01083    -0.00061
  
  S  H  12  -0.07162    -0.00350     0.11633     0.01342     0.18516    -0.01025
  
  S  C  13   0.14938    -0.00633    -0.23466     0.16382     0.12740    -0.05018
 PX  C  13  -0.08436    -0.17910    -0.03858    -0.03563    -0.13484    -0.18322
 PY  C  13  -0.03069    -0.09444    -0.02782    -0.08865     0.12830    -0.12260
 PZ  C  13  -0.00458    -0.00420     0.00124     0.00211    -0.01498    -0.00365
  
  S  H  14  -0.05883    -0.03084    -0.09966     0.00802     0.22898    -0.01983
  
  S  H  15   0.05459     0.15990     0.11000    -0.16935     0.01804    -0.14187
  
  S  H  16   0.13864    -0.01425     0.08162     0.07562     0.14915    -0.02106
  
  S  H  17  -0.12575    -0.05665    -0.07452     0.07562     0.15824    -0.01143
  
  S  H  18  -0.10974     0.11961    -0.14709    -0.14866     0.06095     0.13206
  
  S  H  19   0.08756     0.02789     0.10159    -0.00225     0.23028    -0.01833
  
  S  H  20   0.08269     0.00196    -0.11322     0.04665     0.18283    -0.03273
  
  S  C  21   0.28230     0.05456    -0.17816    -0.10338     0.10092    -0.05729
 PX  C  21  -0.01540     0.13581    -0.11352     0.15261     0.00509    -0.19305
 PY  C  21  -0.00733     0.07066    -0.07845     0.04931    -0.10086    -0.10657
 PZ  C  21   0.00003    -0.01077     0.01004    -0.01359    -0.00408     0.01719
  
  S  C  22   0.07705     0.29795    -0.16957     0.27635    -0.06043    -0.18776
 PX  C  22   0.00091     0.02888    -0.02487     0.10277     0.01701    -0.06358
 PY  C  22  -0.15043     0.03492     0.15526     0.10920    -0.04708     0.14450
 PZ  C  22  -0.00412    -0.00246     0.00749    -0.00788    -0.00325     0.01191
  
  S  C  23  -0.23296     0.19388     0.21997     0.20681    -0.00889     0.21690
 PX  C  23   0.07521     0.10299    -0.08072     0.17700    -0.05433    -0.05290
 PY  C  23  -0.04500    -0.05101     0.08489    -0.02428     0.06484     0.09683
 PZ  C  23  -0.00696    -0.00837     0.00999    -0.01416     0.00411     0.00980
  
  S  C  24  -0.24937    -0.12775     0.15494    -0.17215     0.12307     0.01766
 PX  C  24  -0.06669     0.12856     0.13830     0.08828    -0.03896     0.20437
 PY  C  24  -0.02935     0.06332     0.07460     0.07442     0.06923     0.09445
 PZ  C  24   0.00834    -0.00357    -0.00774    -0.00279    -0.00324    -0.00785
  
  S  H  25   0.13521     0.02783    -0.07529    -0.03450     0.11177    -0.02721
  
  S  H  26   0.04387     0.15952    -0.10505     0.19201    -0.01792    -0.14048
  
  S  H  27  -0.10615     0.10190     0.11846     0.14782     0.00744     0.13559
  
  S  H  28  -0.11196    -0.06875     0.06648    -0.07344     0.11375    -0.00940
  
  S  C  29   0.13840    -0.19940     0.10421    -0.13029    -0.05172     0.19679
 PX  C  29   0.11613     0.02915    -0.07253    -0.15265     0.11485     0.02805
 PY  C  29   0.01788    -0.04630    -0.13896    -0.07730    -0.14828    -0.10803
 PZ  C  29  -0.00932    -0.00203     0.00498     0.00686    -0.01088    -0.00148
  
  S  C  30  -0.00948    -0.28866    -0.12269    -0.13001    -0.10042    -0.18286
 PX  C  30  -0.03092    -0.01230     0.10447    -0.16224    -0.02793     0.08672
 PY  C  30  -0.08698    -0.01413    -0.01838    -0.08330     0.15565    -0.12378
 PZ  C  30  -0.00262     0.00560     0.00616     0.00160    -0.00069     0.00404




    ROOT NO.   13          14          15          16          17          18

           -25.08292   -23.94736   -22.68337   -21.55597   -20.47287   -19.32326
  
  
  S  C   1   0.01411     0.11672     0.00351     0.16608    -0.05504    -0.01157
 PX  C   1  -0.00151    -0.23804    -0.00640    -0.00768     0.23446     0.17951
 PY  C   1  -0.12975     0.00657    -0.19360    -0.13070    -0.11939     0.19969
 PZ  C   1  -0.01430    -0.00672    -0.02350    -0.01827    -0.00836     0.03740
  
  S  C   2   0.12919    -0.18641     0.11575    -0.11524     0.13955     0.03032
 PX  C   2   0.07455     0.03939     0.06479    -0.17643    -0.12965    -0.13836
 PY  C   2  -0.16321     0.00909    -0.19984    -0.07291    -0.14736     0.08277
 PZ  C   2  -0.01405     0.00600    -0.02105    -0.01076    -0.02371     0.01603
  
  S  C   3  -0.11008     0.10591    -0.02037    -0.08616    -0.06541    -0.14827
 PX  C   3   0.14927     0.14751     0.14505     0.10490    -0.02360    -0.02747
 PY  C   3  -0.15911     0.08544    -0.01271     0.12376     0.12896    -0.09580
 PZ  C   3   0.00242     0.01057     0.00532     0.01204     0.00100     0.00966
  
  S  C   4  -0.09151     0.10266    -0.01075     0.07868    -0.06862    -0.14230
 PX  C   4  -0.05246     0.15521     0.06466    -0.17076     0.11644    -0.05765
 PY  C   4   0.22224     0.07201     0.12855    -0.03190    -0.08112     0.05819
 PZ  C   4  -0.00489     0.01000     0.00127    -0.01021     0.00574     0.00957
  
  S  C   5   0.12790    -0.18291     0.11241     0.12686     0.11382     0.00263
 PX  C   5  -0.09441     0.02299    -0.13092     0.15253    -0.20646    -0.02307
 PY  C   5   0.15727     0.02214     0.16469     0.11713    -0.04331    -0.16694
 PZ  C   5  -0.01131     0.00414    -0.01348    -0.00792    -0.00500     0.01499
  
  S  C   6   0.00774     0.12541    -0.00258    -0.17350    -0.03649     0.01880
 PX  C   6  -0.11008    -0.12267    -0.16582     0.10727     0.00647     0.23344
 PY  C   6   0.06588    -0.19394     0.09805    -0.05904     0.26267     0.04021
 PZ  C   6  -0.00493    -0.01145    -0.00696    -0.00152     0.00630     0.01708
  
  S  C   7   0.10417     0.10320    -0.07971     0.20566    -0.07061     0.14232
 PX  C   7  -0.00466    -0.13761    -0.17062     0.07515     0.04174     0.17111
 PY  C   7  -0.09229    -0.08434     0.04150     0.04376     0.21513    -0.00526
 PZ  C   7  -0.00849    -0.01476    -0.00135     0.00111     0.01669     0.00887
  
  S  C   8   0.11105     0.09244    -0.07246    -0.20846    -0.04497     0.16532
 PX  C   8  -0.08779    -0.14742    -0.05063    -0.05083     0.19460     0.04411
 PY  C   8   0.04560    -0.07179    -0.17305    -0.03533    -0.09581     0.14036
 PZ  C   8  -0.00504    -0.01449    -0.00858    -0.00831     0.01213     0.02033
  
  S  C   9  -0.00199    -0.23215     0.04027     0.00472    -0.00954    -0.01396
 PX  C   9   0.01658    -0.05379     0.11534     0.16492    -0.19410    -0.14227
 PY  C   9  -0.02913     0.07657    -0.20842     0.08743    -0.09478    -0.08390
 PZ  C   9   0.00321    -0.00280     0.00754     0.00226    -0.01115     0.00813
  
  S  C  10   0.00340    -0.22421     0.01459     0.00561    -0.00214     0.02256
 PX  C  10  -0.01211     0.04462    -0.12176    -0.18595    -0.16139    -0.13469
 PY  C  10   0.02844    -0.08760     0.22153    -0.09952    -0.10996    -0.09403
 PZ  C  10   0.00197    -0.00642     0.00443    -0.00867    -0.00751     0.00164
  
  S  C  11  -0.14123     0.11389    -0.07215    -0.21047     0.07280    -0.16522
 PX  C  11  -0.08529     0.16050     0.06525     0.06885     0.18794     0.03207
 PY  C  11   0.09740     0.06517     0.16675     0.03113    -0.10524     0.11515
 PZ  C  11   0.00969    -0.00150     0.00358    -0.00368    -0.00792     0.00739
  
  S  H  12  -0.15053     0.06792    -0.11020    -0.09205     0.15677    -0.14057
  
  S  C  13  -0.14712     0.12241    -0.05646     0.21871     0.05586    -0.14897
 PX  C  13   0.04974     0.14967     0.16816    -0.08847     0.03243     0.18612
 PY  C  13  -0.12624     0.10727    -0.04933    -0.01022     0.22513    -0.02074
 PZ  C  13   0.01058    -0.00037     0.01629    -0.01118    -0.01721     0.02420
  
  S  H  14   0.10656     0.06114    -0.10887     0.09131    -0.15063     0.12579
  
  S  H  15   0.07634     0.13803     0.11448     0.16725    -0.04554    -0.20800
  
  S  H  16   0.18289    -0.08688     0.19210    -0.07650     0.10829    -0.08187
  
  S  H  17   0.18443    -0.08797     0.19195     0.08612     0.09444    -0.09288
  
  S  H  18   0.07521     0.13447     0.11377    -0.16716    -0.01139    -0.16394
  
  S  H  19   0.10545     0.04852    -0.12589    -0.10348    -0.13687     0.15698
  
  S  H  20  -0.16070     0.07475    -0.11514     0.13003     0.14734    -0.15485
  
  S  C  21  -0.18171    -0.16593     0.11205     0.11065    -0.11447     0.00382
 PX  C  21  -0.11065     0.00355     0.13654    -0.16967    -0.16954    -0.00622
 PY  C  21   0.17581    -0.04724    -0.16239    -0.12292    -0.04608    -0.15121
 PZ  C  21   0.01851    -0.00158    -0.02167     0.01220     0.01797    -0.00479
  
  S  C  22   0.02258     0.13068    -0.00813    -0.16269     0.04811    -0.03016
 PX  C  22  -0.10135     0.15074     0.16500    -0.09683     0.02551     0.22054
 PY  C  22   0.11337     0.18233    -0.10115     0.08437     0.23957     0.01573
 PZ  C  22   0.01452    -0.01035    -0.02082     0.01379     0.00473    -0.02152
  
  S  C  23   0.01464     0.12623     0.01177     0.18353     0.03545     0.02535
 PX  C  23   0.05036     0.23930    -0.00170     0.03475     0.21719     0.17103
 PY  C  23  -0.13985     0.00898     0.19255     0.12186    -0.12512     0.21427
 PZ  C  23  -0.00318    -0.01920     0.00138     0.00357    -0.02023    -0.00818
  
  S  C  24  -0.19182    -0.16828     0.12697    -0.12750    -0.11758    -0.01851
 PX  C  24   0.09179    -0.04589    -0.06652     0.16912    -0.13367    -0.13185
 PY  C  24  -0.16865     0.01602     0.20389     0.07712    -0.15859     0.10838
 PZ  C  24   0.00484     0.00217    -0.00218    -0.00891     0.00677     0.00982
  
  S  H  25  -0.22816    -0.05560     0.19335     0.07145    -0.08318     0.09036
  
  S  H  26  -0.05744     0.15573     0.11170    -0.15639     0.03159     0.15016
  
  S  H  27  -0.04344     0.15783     0.10807     0.17559     0.03775     0.21947
  
  S  H  28  -0.22083    -0.05917     0.19916    -0.07553    -0.10201     0.10166
  
  S  C  29   0.12264     0.09168    -0.01334     0.09287     0.05478     0.12802
 PX  C  29  -0.10077    -0.16009    -0.06434     0.17442     0.09211    -0.05899
 PY  C  29   0.24775    -0.10071    -0.13546     0.02715    -0.08529     0.07584
 PZ  C  29   0.01477     0.00946    -0.00189    -0.01715    -0.00427     0.00939
  
  S  C  30   0.13630     0.09622    -0.02260    -0.09919     0.07832     0.15321
 PX  C  30   0.14130    -0.18040    -0.15857    -0.08972    -0.01374    -0.04882
 PY  C  30  -0.22011    -0.07080     0.02077    -0.12674     0.13748    -0.10958
 PZ  C  30   0.00028    -0.00322     0.00402    -0.00970    -0.00532     0.00991




    ROOT NO.   19          20          21          22          23          24

           -18.40425   -17.33186   -16.83138   -16.60240   -16.07966   -15.28600
  
  
  S  C   1  -0.15592     0.01327    -0.06194    -0.07685     0.02831     0.05500
 PX  C   1   0.04647    -0.16483    -0.02879    -0.04470     0.18973     0.06556
 PY  C   1   0.10627     0.18738     0.00704     0.08918     0.18190     0.16892
 PZ  C   1   0.01872     0.02537    -0.01138     0.00840     0.05691     0.03594
  
  S  C   2   0.15891     0.00153     0.00368     0.06263     0.02389     0.03612
 PX  C   2   0.12588     0.17288     0.05798     0.11188    -0.18202    -0.05782
 PY  C   2  -0.05850     0.11917    -0.24062    -0.12814    -0.05534     0.21809
 PZ  C   2  -0.00976     0.02779    -0.04499    -0.02035     0.02252     0.03318
  
  S  C   3  -0.04392    -0.03452    -0.20981    -0.10934    -0.10999    -0.01205
 PX  C   3  -0.16483     0.01510    -0.04201    -0.03795     0.19782    -0.05769
 PY  C   3  -0.02746    -0.25390     0.10858    -0.00972    -0.02840    -0.16093
 PZ  C   3  -0.02086     0.00564    -0.02978    -0.01406     0.04298    -0.02511
  
  S  C   4   0.09108    -0.04375     0.19033     0.09846    -0.05437    -0.04288
 PX  C   4   0.14194    -0.18807    -0.04043    -0.08346     0.08797     0.12618
 PY  C   4   0.10076     0.15581     0.04854     0.06544     0.21974     0.17855
 PZ  C   4   0.00828    -0.00374     0.00054    -0.00655     0.02978    -0.03107
  
  S  C   5  -0.16984     0.00399    -0.00971    -0.05455    -0.01607    -0.00148
 PX  C   5  -0.01209     0.16972     0.14662     0.16235    -0.10093    -0.12863
 PY  C   5  -0.09890     0.10215    -0.20493    -0.07903    -0.12726     0.25248
 PZ  C   5   0.01715    -0.00246     0.02341     0.01485     0.02859    -0.04861
  
  S  C   6   0.15902     0.01223     0.06655     0.07862     0.06548    -0.02772
 PX  C   6  -0.18771     0.06486     0.02296    -0.05415     0.19383     0.00953
 PY  C   6   0.01575    -0.24309     0.05727    -0.05821     0.03826    -0.17323
 PZ  C   6   0.00430    -0.00157     0.00487     0.00279     0.03175    -0.01338
  
  S  C   7  -0.11476    -0.04346     0.06423     0.01089     0.09496    -0.03579
 PX  C   7   0.14383    -0.04770     0.18314     0.10066    -0.10680     0.04050
 PY  C   7   0.08553    -0.05619    -0.29025     0.03152    -0.01721    -0.10537
 PZ  C   7   0.00810     0.00521    -0.04654    -0.00187     0.00644    -0.03013
  
  S  C   8   0.07168    -0.02363    -0.03926    -0.05417     0.05747     0.00076
 PX  C   8  -0.17822    -0.05939     0.14738    -0.07660    -0.16973     0.07599
 PY  C   8  -0.09920    -0.00172    -0.27365    -0.06320    -0.10920    -0.27023
 PZ  C   8  -0.02162     0.00456     0.00043    -0.02085    -0.01296    -0.03628
  
  S  C   9  -0.13620     0.13242     0.17256    -0.03439    -0.09960     0.06999
 PX  C   9   0.05851     0.12000    -0.03806     0.07612     0.08185    -0.06114
 PY  C   9  -0.05322    -0.20826     0.09278    -0.05996    -0.11743    -0.04499
 PZ  C   9  -0.00279     0.02003    -0.00714    -0.01749    -0.00318    -0.03845
  
  S  C  10   0.13689     0.10008    -0.17851     0.10227    -0.04133    -0.06941
 PX  C  10   0.07975    -0.11744    -0.03885    -0.06140    -0.10003    -0.01500
 PY  C  10  -0.06682     0.22685     0.05048    -0.00436     0.07684     0.05931
 PZ  C  10  -0.00133     0.01370    -0.02336    -0.00780    -0.00063    -0.03372
  
  S  C  11  -0.08300    -0.03490     0.00465    -0.07091     0.04264     0.03696
 PX  C  11  -0.20359     0.06755     0.14012    -0.02034     0.14402     0.05424
 PY  C  11  -0.10084    -0.02837    -0.11200     0.19855     0.18947    -0.21253
 PZ  C  11  -0.00678    -0.00539    -0.01619     0.00351     0.00048    -0.03202
  
  S  H  12  -0.04224     0.03165     0.15883    -0.20533    -0.06053     0.20633
  
  S  C  13   0.11736    -0.04746    -0.00129     0.02987     0.10887     0.04334
 PX  C  13   0.12024     0.06933     0.03826    -0.20170     0.09297     0.09081
 PY  C  13   0.09608     0.00650    -0.19899     0.17292     0.11240     0.00158
 PZ  C  13  -0.00904     0.01700     0.03030    -0.05503    -0.02174    -0.01852
  
  S  H  14  -0.06233     0.00155     0.33996     0.02131     0.02164     0.08692
  
  S  H  15  -0.17184    -0.05360    -0.02013    -0.08289    -0.21152    -0.13500
  
  S  H  16   0.16965    -0.00663     0.21883     0.17692    -0.02508    -0.16864
  
  S  H  17  -0.15288     0.01618    -0.22672    -0.15234    -0.06398     0.24774
  
  S  H  18   0.22905    -0.05895     0.01361     0.08067    -0.13252    -0.02802
  
  S  H  19   0.02540     0.00187    -0.29790    -0.04317     0.01617    -0.23786
  
  S  H  20   0.07518    -0.05797    -0.17731     0.23838     0.10421    -0.02134
  
  S  C  21   0.16920     0.02388    -0.02814    -0.06734    -0.01301     0.02164
 PX  C  21  -0.01692    -0.13858     0.04645    -0.25184     0.13359    -0.08760
 PY  C  21  -0.09211    -0.20054    -0.04288     0.18544     0.07623     0.27370
 PZ  C  21  -0.00693     0.00648    -0.00720     0.03439    -0.01702     0.01146
  
  S  C  22  -0.15563    -0.01600     0.00599     0.11309     0.05583     0.03024
 PX  C  22  -0.16127    -0.04372     0.03392     0.07385    -0.17180    -0.10872
 PY  C  22  -0.00245     0.28074     0.01293     0.01766    -0.02557    -0.16148
 PZ  C  22   0.01711     0.01246    -0.00313    -0.01126     0.01013     0.00127
  
  S  C  23   0.15735     0.02867    -0.00743    -0.11405     0.03513    -0.01339
 PX  C  23   0.05331     0.18014    -0.04448     0.07504    -0.24264     0.07241
 PY  C  23   0.13575    -0.19010    -0.02819    -0.05408    -0.19070     0.12228
 PZ  C  23   0.00330    -0.01719     0.00608    -0.02429     0.00525    -0.01575
  
  S  C  24  -0.15280    -0.00765     0.02849     0.05855     0.00458    -0.05535
 PX  C  24   0.12525    -0.17295     0.02750    -0.16672     0.24416    -0.04813
 PY  C  24  -0.02350    -0.21903    -0.04825     0.24260     0.00612     0.18725
 PZ  C  24  -0.00791     0.01324     0.00725    -0.01795    -0.03005    -0.02275
  
  S  H  25   0.14250     0.10598     0.04222    -0.28375    -0.00779    -0.23232
  
  S  H  26  -0.20660    -0.05800     0.03234     0.11445    -0.11762    -0.07560
  
  S  H  27   0.19118    -0.02528    -0.04493    -0.05897    -0.24010     0.11858
  
  S  H  28  -0.14102    -0.08287    -0.03961     0.28951    -0.09342     0.13821
  
  S  C  29  -0.07795    -0.08150    -0.05022     0.20875    -0.03217    -0.00426
 PX  C  29   0.14012     0.19215    -0.03192     0.10925    -0.13428     0.10326
 PY  C  29   0.13196    -0.15631     0.00288    -0.07110    -0.23370     0.09910
 PZ  C  29  -0.02314    -0.01941     0.00175    -0.01159    -0.00645    -0.03033
  
  S  C  30   0.03506     0.02496     0.05701    -0.20553    -0.11779    -0.02005
 PX  C  30  -0.14576    -0.01462    -0.01256     0.09113    -0.18245    -0.10790
 PY  C  30  -0.06237     0.30632     0.01921    -0.04647     0.01762    -0.10161
 PZ  C  30  -0.01775     0.00649     0.01162    -0.02258    -0.02573    -0.03419




    ROOT NO.   25          26          27          28          29          30

           -14.89753   -14.71808   -14.67947   -14.42929   -13.77051   -13.43416
  
  
  S  C   1   0.01282     0.02847    -0.02898     0.02396     0.04436    -0.00054
 PX  C   1   0.24960    -0.17560     0.01370     0.00223     0.11129     0.04524
 PY  C   1  -0.09856     0.01530     0.19376    -0.03047     0.10731     0.08573
 PZ  C   1  -0.03383    -0.10020     0.01982     0.11536     0.06293    -0.20304
  
  S  C   2   0.00561    -0.05699     0.09746    -0.00561    -0.01897    -0.00563
 PX  C   2  -0.24269     0.14523     0.04372    -0.01639    -0.14104    -0.03729
 PY  C   2   0.19709    -0.00707     0.05407     0.06305    -0.11725    -0.01970
 PZ  C   2  -0.02798    -0.10902    -0.01071     0.15322     0.02841    -0.22634
  
  S  C   3   0.02604    -0.01813    -0.04470    -0.01006     0.00627    -0.01579
 PX  C   3  -0.16269     0.00988    -0.09570    -0.07310     0.27315     0.04838
 PY  C   3   0.05363    -0.03401    -0.07570    -0.04714     0.04213     0.05298
 PZ  C   3  -0.10504    -0.17473    -0.04761     0.21967     0.04312    -0.25684
  
  S  C   4   0.05557    -0.02085     0.01192     0.01462     0.02008     0.01602
 PX  C   4   0.18953     0.01578    -0.05907     0.04367     0.13479     0.04967
 PY  C   4  -0.02045     0.00517     0.03859     0.05338     0.18524    -0.00361
 PZ  C   4  -0.09643    -0.17206    -0.06382     0.23387     0.01362    -0.27484
  
  S  C   5  -0.08936     0.07742    -0.03413     0.02066    -0.01852    -0.02921
 PX  C   5  -0.13326    -0.04538     0.09870    -0.04703    -0.11869    -0.02247
 PY  C   5   0.09792    -0.04294     0.24801     0.07059    -0.08128    -0.00913
 PZ  C   5  -0.06758    -0.11123    -0.05798     0.13587     0.03075    -0.23399
  
  S  C   6  -0.02978    -0.03215     0.00801    -0.01744     0.05773     0.00307
 PX  C   6  -0.22822     0.20135    -0.13871    -0.01440     0.14860     0.02551
 PY  C   6   0.08960    -0.01018    -0.24942    -0.01399     0.03033    -0.01676
 PZ  C   6  -0.04218    -0.08721    -0.03114     0.11193     0.04376    -0.21536
  
  S  C   7   0.04727    -0.05739     0.01017     0.00289    -0.00583     0.00965
 PX  C   7   0.17127    -0.02157     0.13843     0.04009    -0.27117    -0.01326
 PY  C   7  -0.20410    -0.12356     0.18934    -0.18231    -0.03186     0.00768
 PZ  C   7  -0.10321    -0.16709    -0.00840     0.19043    -0.01647    -0.12140
  
  S  C   8   0.00797     0.03110    -0.07275    -0.00322    -0.02690    -0.00830
 PX  C   8  -0.06987     0.20772     0.05127     0.10811    -0.21568    -0.05303
 PY  C   8  -0.06695    -0.08294    -0.06663    -0.18506    -0.14757     0.02236
 PZ  C   8  -0.10378    -0.15017    -0.04830     0.21169    -0.05926    -0.14848
  
  S  C   9  -0.00024    -0.03698     0.00327     0.01064    -0.01068    -0.00625
 PX  C   9   0.09194    -0.22109    -0.02942    -0.14973     0.22767     0.06849
 PY  C   9   0.06844    -0.14426     0.03558    -0.04006     0.12578     0.01442
 PZ  C   9  -0.09865    -0.20653    -0.04847     0.22744    -0.05160     0.01067
  
  S  C  10  -0.00509     0.03107     0.01462     0.00749    -0.01340    -0.00315
 PX  C  10   0.10390     0.17055    -0.18845     0.15308     0.16625    -0.02077
 PY  C  10   0.03945     0.08778    -0.16122     0.04162     0.09522     0.01420
 PZ  C  10  -0.10222    -0.17946    -0.03932     0.25320    -0.03894     0.02801
  
  S  C  11  -0.07507     0.03358    -0.04168     0.02152     0.02564     0.02055
 PX  C  11  -0.10955    -0.16860     0.15546    -0.14519    -0.15437     0.03059
 PY  C  11   0.17293     0.15718     0.01050     0.15602    -0.16459     0.03349
 PZ  C  11  -0.06907    -0.11980    -0.01463     0.20546    -0.04291     0.17610
  
  S  H  12  -0.20190    -0.17257     0.03684    -0.19037     0.08374    -0.01861
  
  S  C  13  -0.00558    -0.05529     0.03052    -0.01006     0.01224     0.00809
 PX  C  13  -0.05894    -0.03213    -0.13017    -0.12597    -0.28160    -0.04890
 PY  C  13  -0.08519     0.28005     0.04848     0.20592    -0.09832    -0.01364
 PZ  C  13  -0.05740    -0.17603    -0.04262     0.13175    -0.05404     0.15064
  
  S  H  14   0.24615     0.08188    -0.08726     0.13478    -0.08629     0.00821
  
  S  H  15  -0.03196     0.10310    -0.17328     0.01699    -0.13127    -0.05994
  
  S  H  16  -0.24806     0.06346     0.02786    -0.07172     0.00699     0.02396
  
  S  H  17   0.09270     0.03316     0.14458     0.06326    -0.03283     0.01761
  
  S  H  18   0.20319    -0.19631     0.12076    -0.00379    -0.11487    -0.00797
  
  S  H  19  -0.02292    -0.12475    -0.10119    -0.18935    -0.04534     0.03919
  
  S  H  20  -0.02972     0.22285     0.10434     0.18058     0.06268    -0.00785
  
  S  C  21   0.00650     0.02625    -0.11305     0.01647    -0.01250     0.01681
 PX  C  21  -0.07129     0.10728     0.08336     0.07245    -0.10403     0.04994
 PY  C  21  -0.18499    -0.01776    -0.15336    -0.05041    -0.09905     0.05525
 PZ  C  21  -0.04283    -0.08774    -0.02052     0.11477    -0.01858     0.27682
  
  S  C  22   0.01004    -0.05077    -0.02113    -0.03619    -0.06082     0.00162
 PX  C  22   0.02886    -0.03213     0.29410     0.02977     0.20868    -0.01727
 PY  C  22   0.21494    -0.06152    -0.02687    -0.02340     0.01045    -0.06789
 PZ  C  22  -0.03022    -0.05210    -0.03695     0.09328    -0.03746     0.26082
  
  S  C  23  -0.01711     0.04081    -0.01048     0.01673    -0.04445    -0.00204
 PX  C  23   0.02957     0.00904    -0.26848     0.01956     0.05188     0.06721
 PY  C  23  -0.18943     0.09591     0.05472     0.05604     0.13136     0.04611
 PZ  C  23  -0.03963    -0.04775     0.02649     0.09695    -0.00550     0.25643
  
  S  C  24   0.05805    -0.04762     0.04102    -0.00545     0.04095     0.01503
 PX  C  24  -0.07351     0.01779     0.24495     0.00242    -0.08918    -0.03632
 PY  C  24  -0.02257    -0.10738    -0.12859    -0.10331    -0.13679    -0.04979
 PZ  C  24  -0.03319    -0.06853     0.00036     0.11722     0.00705     0.27293
  
  S  H  25   0.11605     0.07563     0.10224     0.06159     0.03650    -0.04368
  
  S  H  26   0.02247    -0.04426     0.26638     0.00114     0.17364    -0.04215
  
  S  H  27  -0.13395     0.10043    -0.10432     0.06272     0.11479     0.07087
  
  S  H  28   0.04889    -0.10570    -0.19806    -0.08421    -0.04585    -0.02812
  
  S  C  29   0.01880     0.00793     0.06830     0.03246    -0.01987    -0.00292
 PX  C  29   0.03824    -0.11949    -0.15314    -0.05023     0.10462     0.01849
 PY  C  29  -0.08905     0.00304     0.04485    -0.02831     0.18293    -0.06883
 PZ  C  29  -0.07637    -0.11877     0.01215     0.20496    -0.04124     0.32604
  
  S  C  30  -0.06272     0.01684     0.05012    -0.00272     0.01432     0.00611
 PX  C  30   0.03651     0.08897     0.13736     0.11853     0.29093     0.02318
 PY  C  30   0.08844     0.01457    -0.08758     0.04020     0.03602     0.07154
 PZ  C  30  -0.05589    -0.13181    -0.00463     0.17914    -0.02143     0.31296




    ROOT NO.   31          32          33          34          35          36

           -13.21714   -12.88135   -12.13413   -11.79328   -11.68049   -11.47181
  
  
  S  C   1  -0.01740     0.00347     0.00859    -0.00136     0.00998     0.01477
 PX  C   1   0.14595    -0.15609    -0.09650     0.07813    -0.00106     0.16071
 PY  C   1  -0.19776    -0.17127     0.13623     0.07837     0.08149     0.05311
 PZ  C   1  -0.00573    -0.09911     0.03659    -0.32526     0.09444     0.03532
  
  S  C   2  -0.00497    -0.02800    -0.02464    -0.01303    -0.03662    -0.02131
 PX  C   2  -0.12746     0.16407     0.06229    -0.06703    -0.03589    -0.18277
 PY  C   2   0.13692     0.18240    -0.16398    -0.01025    -0.15499    -0.11450
 PZ  C   2   0.02763    -0.03080    -0.01083    -0.24232     0.02829    -0.00394
  
  S  C   3  -0.01180     0.03499     0.02075    -0.01069     0.00967     0.00352
 PX  C   3  -0.00531    -0.13772    -0.13928     0.05864    -0.07160     0.24249
 PY  C   3  -0.08567    -0.16000     0.24950     0.04077     0.25026     0.07595
 PZ  C   3   0.00366    -0.04629     0.01064    -0.04720     0.00911     0.00181
  
  S  C   4   0.01485    -0.03344    -0.00041     0.00907    -0.00491    -0.00787
 PX  C   4  -0.15294     0.12746     0.20779    -0.01849     0.08052    -0.22604
 PY  C   4   0.01972     0.10522    -0.21720    -0.01499    -0.24828    -0.08185
 PZ  C   4   0.00258    -0.00909     0.06508    -0.05482     0.04008    -0.03309
  
  S  C   5  -0.02148     0.02030    -0.02965    -0.02214    -0.02638     0.02783
 PX  C   5   0.15268    -0.16295    -0.18939     0.03407    -0.06289     0.21907
 PY  C   5  -0.11045    -0.17297     0.12956    -0.00241     0.11041     0.06391
 PZ  C   5   0.04065    -0.01580     0.01457    -0.23784     0.05133    -0.01413
  
  S  C   6  -0.01303    -0.02157     0.00718    -0.01338     0.00401    -0.00565
 PX  C   6  -0.19897     0.15108     0.11141    -0.02144     0.00567    -0.14057
 PY  C   6   0.16305     0.19607    -0.12940    -0.01273    -0.10232    -0.08363
 PZ  C   6   0.02284    -0.04357     0.02470    -0.33418     0.08177     0.00230
  
  S  C   7   0.01963    -0.07435    -0.01909     0.01150    -0.05299    -0.00121
 PX  C   7  -0.00589     0.08142     0.12145    -0.06084     0.03072    -0.24271
 PY  C   7  -0.11888    -0.04668    -0.08061    -0.07737    -0.21374    -0.09347
 PZ  C   7  -0.02847    -0.00007     0.00028     0.14552    -0.04814    -0.05069
  
  S  C   8  -0.02165     0.06545    -0.00685    -0.00982    -0.04823     0.01172
 PX  C   8  -0.08048    -0.10514    -0.06742    -0.01469    -0.06766     0.23945
 PY  C   8   0.09316    -0.07341     0.10662     0.01234     0.19903     0.08639
 PZ  C   8  -0.01692    -0.00322     0.07172     0.15128     0.01324     0.00878
  
  S  C   9   0.04775    -0.03309    -0.01170     0.02144    -0.00122     0.00855
 PX  C   9   0.10995     0.05219     0.07193    -0.00875     0.10374    -0.24050
 PY  C   9  -0.22893    -0.12541     0.03338    -0.06183    -0.29521    -0.07000
 PZ  C   9  -0.03723     0.04309     0.07081     0.31943    -0.02225    -0.03481
  
  S  C  10   0.01621     0.06502     0.00860    -0.01033    -0.00172    -0.00132
 PX  C  10  -0.16253    -0.02254     0.03095     0.01222    -0.09880     0.25480
 PY  C  10   0.22416     0.06931     0.01128     0.07653     0.30049     0.08733
 PZ  C  10  -0.04137     0.04492     0.01418     0.33832    -0.02397    -0.04074
  
  S  C  11   0.01804    -0.06966    -0.00433     0.01405    -0.03367     0.02914
 PX  C  11   0.16888    -0.03723    -0.02144    -0.01192     0.07053    -0.23989
 PY  C  11  -0.01403    -0.15557     0.11701    -0.05347    -0.17642    -0.05931
 PZ  C  11  -0.04413     0.04547    -0.03185     0.17385     0.00082    -0.02532
  
  S  H  12   0.09813     0.08153    -0.12237     0.04041     0.20514    -0.05526
  
  S  C  13  -0.03424     0.06858     0.03608    -0.01273    -0.06423    -0.00046
 PX  C  13  -0.02490     0.10090     0.09054    -0.02832    -0.03349     0.22419
 PY  C  13   0.13451     0.07617    -0.09493     0.07710     0.19949     0.09024
 PZ  C  13  -0.06345     0.04035     0.05345     0.12005    -0.06322     0.00896
  
  S  H  14   0.10786     0.03817     0.12417     0.03265     0.21278    -0.02437
  
  S  H  15   0.08041     0.24212    -0.06587    -0.05558    -0.08014    -0.13596
  
  S  H  16  -0.17643    -0.07711     0.16807     0.00090     0.10598    -0.00858
  
  S  H  17  -0.17335    -0.06222     0.19271     0.00178     0.12062    -0.03330
  
  S  H  18   0.19585    -0.14627    -0.11762     0.04162    -0.01334     0.13961
  
  S  H  19   0.09963     0.01208     0.12949     0.01584     0.21204    -0.02929
  
  S  H  20   0.10884     0.04060    -0.12059     0.05630     0.18893    -0.04034
  
  S  C  21  -0.01910    -0.03342     0.02101    -0.00627    -0.02589     0.03359
 PX  C  21   0.00420    -0.22601    -0.18375    -0.01394     0.08323    -0.21018
 PY  C  21   0.19306    -0.10058     0.13702    -0.01408    -0.09107    -0.04017
 PZ  C  21  -0.01106     0.07922    -0.03966    -0.19665     0.05278     0.07865
  
  S  C  22  -0.02722     0.00548    -0.01039    -0.01249     0.00200    -0.00722
 PX  C  22   0.06302     0.25666     0.11044    -0.01794    -0.01670     0.14449
 PY  C  22  -0.26054     0.08184    -0.14880     0.01904     0.08558     0.04566
 PZ  C  22  -0.02222     0.02356    -0.07867    -0.28846     0.07684     0.06442
  
  S  C  23   0.00339    -0.01456    -0.00573     0.00551     0.00356     0.00922
 PX  C  23  -0.04300    -0.23020    -0.10010    -0.02792     0.02100    -0.13695
 PY  C  23   0.27413    -0.05030     0.16680     0.00975    -0.08766    -0.01954
 PZ  C  23   0.01118     0.05945    -0.03437    -0.30814     0.05437     0.08726
  
  S  C  24  -0.01894     0.01094     0.02611    -0.02346    -0.03005    -0.01424
 PX  C  24   0.03799     0.23010     0.06484    -0.00295     0.00908     0.15689
 PY  C  24  -0.21055     0.09330    -0.18217     0.00679     0.12765     0.06453
 PZ  C  24  -0.00474     0.03121    -0.03285    -0.23849     0.03285     0.04514
  
  S  H  25  -0.16528    -0.04305    -0.20231     0.02604     0.11566    -0.06471
  
  S  H  26   0.06648     0.24724     0.12295     0.01045    -0.02786     0.13452
  
  S  H  27   0.20271    -0.18283     0.08116    -0.00128    -0.06223    -0.10045
  
  S  H  28  -0.20216    -0.03540    -0.18636     0.01104     0.10211    -0.04042
  
  S  C  29  -0.00280     0.03385     0.00754    -0.00563    -0.01338    -0.01569
 PX  C  29   0.00111     0.21176     0.18497    -0.00789    -0.08478     0.23524
 PY  C  29  -0.08526     0.10296    -0.22447     0.06441     0.21531     0.03648
 PZ  C  29  -0.03925     0.05403    -0.08768    -0.02637     0.05734    -0.01207
  
  S  C  30   0.02809    -0.02899    -0.02114     0.00279     0.01388     0.00152
 PX  C  30   0.07487    -0.13344    -0.11543     0.03615     0.08048    -0.22406
 PY  C  30   0.14367    -0.11298     0.25245    -0.04276    -0.21085    -0.01558
 PZ  C  30  -0.04175     0.04895    -0.03064    -0.06468     0.01142     0.00969




    ROOT NO.   37          38          39          40          41          42

           -10.60527    -9.92180    -9.58460    -8.21695    -8.09206    -6.67188
  
  
  S  C   1   0.00220     0.01021     0.00062     0.00258     0.00637     0.00347
 PX  C   1   0.02463    -0.00757     0.02159     0.01421    -0.01697    -0.01342
 PY  C   1   0.02993    -0.04893     0.04044     0.01356    -0.05198    -0.02432
 PZ  C   1  -0.18298     0.26737    -0.22586    -0.10165     0.30258     0.18240
  
  S  C   2  -0.00018    -0.00303    -0.00491    -0.01308     0.00210     0.01104
 PX  C   2  -0.00985    -0.00338    -0.00751    -0.00547     0.00415     0.00259
 PY  C   2   0.05239     0.01469     0.04152     0.04241    -0.00455    -0.02375
 PZ  C   2  -0.25527    -0.00650    -0.29780    -0.34428     0.11526     0.25079
  
  S  C   3   0.00104     0.00036     0.00467    -0.00056    -0.00762    -0.00093
 PX  C   3   0.03317     0.04509     0.01587     0.01407     0.02832     0.01718
 PY  C   3  -0.02337    -0.00970    -0.00497     0.00136    -0.00573    -0.00076
 PZ  C   3  -0.20070    -0.35215    -0.11951    -0.19402    -0.29313    -0.12175
  
  S  C   4  -0.02295     0.00105    -0.02198    -0.00388     0.02260    -0.00386
 PX  C   4  -0.01758    -0.00914    -0.01011     0.00346     0.01490    -0.01010
 PY  C   4   0.02644     0.00733     0.00607    -0.00342     0.01374     0.00340
 PZ  C   4   0.28443    -0.15562     0.28445    -0.07352    -0.30757     0.14224
  
  S  C   5   0.00804     0.01585     0.00917     0.01117    -0.00633    -0.00375
 PX  C   5   0.00199     0.00541    -0.00603    -0.00976    -0.00261     0.01039
 PY  C   5   0.02350     0.01221     0.03768     0.03988    -0.02591    -0.02859
 PZ  C   5   0.18349     0.20120     0.26299     0.33535    -0.15479    -0.24297
  
  S  C   6  -0.00016     0.02042     0.00153     0.01730     0.01196    -0.01241
 PX  C   6  -0.00768    -0.01216    -0.00716    -0.01260     0.00308     0.00764
 PY  C   6  -0.00996    -0.00327    -0.02096    -0.02297     0.01693     0.01785
 PZ  C   6   0.01117     0.37264     0.05497     0.31791     0.14051    -0.20754
  
  S  C   7  -0.01834    -0.02328    -0.00094     0.01647    -0.00285    -0.02353
 PX  C   7  -0.00829    -0.01086    -0.00149    -0.00679     0.00042     0.00906
 PY  C   7   0.04239     0.03306     0.02428    -0.01534     0.01802     0.04134
 PZ  C   7  -0.31160    -0.32085    -0.12716     0.16311    -0.09573    -0.36878
  
  S  C   8  -0.00498    -0.00439     0.00124     0.00123    -0.00561     0.00259
 PX  C   8  -0.04210     0.01613    -0.01877     0.02438    -0.01618    -0.03254
 PY  C   8  -0.03585     0.00660    -0.01735     0.00827    -0.00756    -0.01444
 PZ  C   8   0.39475    -0.07646     0.19814    -0.18027     0.10293     0.34833
  
  S  C   9   0.00340     0.00168     0.00482     0.00207     0.02213    -0.00122
 PX  C   9  -0.01107    -0.01490     0.00762    -0.00612    -0.01455     0.00572
 PY  C   9  -0.00235    -0.00592     0.03331     0.00230     0.01394     0.01530
 PZ  C   9   0.26511     0.06642    -0.07882    -0.06545     0.42842    -0.02286
  
  S  C  10   0.00455     0.01020    -0.00589    -0.00860    -0.00337    -0.00068
 PX  C  10   0.00211     0.00555     0.00575    -0.00658    -0.00794    -0.00743
 PY  C  10  -0.00274    -0.00221    -0.02090    -0.00704    -0.02139    -0.01750
 PZ  C  10  -0.25342    -0.04024    -0.02063     0.35605     0.24632    -0.01275
  
  S  C  11  -0.01099     0.00995     0.00945     0.01153     0.00065     0.01584
 PX  C  11  -0.00319    -0.00829    -0.00109     0.00538     0.00641     0.00650
 PY  C  11   0.01138    -0.00978    -0.00021    -0.01002     0.00800    -0.01417
 PZ  C  11  -0.33084     0.19838     0.17396     0.23389    -0.06802     0.38294
  
  S  H  12   0.00803    -0.00862    -0.01102    -0.00133     0.00085    -0.00988
  
  S  C  13   0.00967     0.00685    -0.00407    -0.00506    -0.00347     0.00079
 PX  C  13  -0.05122    -0.01236     0.02453     0.02799    -0.01333     0.03537
 PY  C  13   0.05029     0.03444    -0.06441    -0.02544     0.00792    -0.05261
 PZ  C  13   0.25155     0.22235    -0.29990    -0.20749     0.05530    -0.37285
  
  S  H  14  -0.01084    -0.00671    -0.00881    -0.00465    -0.00708     0.00617
  
  S  H  15  -0.00945     0.00498    -0.01146    -0.00438     0.00754     0.00061
  
  S  H  16  -0.01905    -0.01691    -0.00483    -0.00142    -0.00978    -0.00732
  
  S  H  17   0.00010    -0.01255     0.00944     0.00505    -0.01118    -0.00570
  
  S  H  18   0.00685    -0.00929     0.00319    -0.00734    -0.01142     0.00560
  
  S  H  19  -0.01317    -0.00288    -0.00936    -0.00500    -0.00473     0.00084
  
  S  H  20   0.03301     0.00124    -0.02455    -0.00476     0.00353    -0.00593
  
  S  C  21  -0.00923     0.00375     0.00687    -0.00123    -0.00652     0.00222
 PX  C  21   0.00565    -0.00921     0.03999    -0.04093     0.02581    -0.03022
 PY  C  21   0.00319     0.00231    -0.02156     0.01478    -0.01025     0.00945
 PZ  C  21  -0.14907    -0.03842     0.39181    -0.31250     0.13540    -0.22366
  
  S  C  22   0.00494    -0.00645    -0.00516     0.00278     0.00093    -0.00089
 PX  C  22  -0.01394    -0.02757     0.03604    -0.01234     0.03806    -0.02111
 PY  C  22   0.00621     0.00546    -0.00939     0.00593    -0.00985     0.00834
 PZ  C  22  -0.00863    -0.29133     0.25812    -0.10387     0.33736    -0.19697
  
  S  C  23  -0.00340     0.00964     0.00092    -0.00731    -0.00450    -0.00611
 PX  C  23   0.02312    -0.03849    -0.01176     0.02946     0.01319     0.02149
 PY  C  23  -0.01624     0.01468     0.01415    -0.01363    -0.00093    -0.00841
 PZ  C  23   0.15157    -0.36207    -0.12349     0.28678     0.14991     0.17269
  
  S  C  24   0.00743    -0.01763    -0.00913     0.01872    -0.00215     0.01725
 PX  C  24   0.00258     0.00503    -0.02266     0.00985    -0.01481     0.00464
 PY  C  24   0.02126    -0.00179    -0.03109     0.01316    -0.01396     0.00590
 PZ  C  24   0.20434    -0.17427    -0.33575     0.29339    -0.15304     0.22181
  
  S  H  25   0.01295    -0.00270     0.00094    -0.00125     0.00841     0.00022
  
  S  H  26  -0.01222     0.00344     0.00640    -0.00033     0.00172     0.00046
  
  S  H  27  -0.00383    -0.00317     0.00939    -0.00049     0.00704     0.00193
  
  S  H  28   0.01388    -0.00355    -0.00483    -0.00164     0.00379    -0.00402
  
  S  C  29   0.00580     0.00366    -0.00331    -0.00547     0.00212    -0.00363
 PX  C  29  -0.04546     0.03376     0.01896    -0.00309    -0.04165     0.02154
 PY  C  29   0.02199    -0.00285    -0.01301     0.00233     0.01121    -0.00431
 PZ  C  29  -0.22369     0.28086     0.21263    -0.15488    -0.27973     0.14576
  
  S  C  30  -0.00288     0.01208    -0.00551    -0.00746    -0.01380    -0.01119
 PX  C  30   0.02909    -0.01050     0.00562    -0.01291     0.02639    -0.01036
 PY  C  30  -0.03108    -0.00334     0.02883     0.00011     0.00159     0.00709
 PZ  C  30   0.14600     0.23490    -0.30743    -0.11427    -0.35793    -0.13503




    ROOT NO.   43          44          45          46          47          48

            -1.08382     0.21670     0.22965     1.22313     1.35549     1.82221
  
  
  S  C   1  -0.00172     0.00424    -0.02052     0.00608    -0.04531    -0.01894
 PX  C   1   0.00364    -0.00162     0.01648     0.00089     0.02502    -0.00629
 PY  C   1   0.03486     0.03617     0.03044    -0.03206     0.02617     0.02289
 PZ  C   1  -0.18599    -0.16550    -0.27676     0.18584    -0.32487    -0.14343
  
  S  C   2   0.01142     0.01874     0.00323    -0.02894     0.01198     0.04807
 PX  C   2  -0.00419    -0.00370    -0.00554    -0.00030    -0.01132     0.00738
 PY  C   2  -0.03191    -0.04351    -0.01039     0.03269    -0.01087    -0.01377
 PZ  C   2   0.24309     0.34853     0.04525    -0.30188     0.06580     0.23599
  
  S  C   3   0.00935    -0.00121     0.00433     0.03150     0.00522    -0.06841
 PX  C   3  -0.00385     0.01648    -0.02059    -0.01572    -0.01219     0.00999
 PY  C   3   0.00574     0.01175    -0.00899    -0.00694    -0.01073     0.00704
 PZ  C   3   0.13076    -0.11957     0.32503     0.19025     0.32039    -0.22895
  
  S  C   4  -0.01463    -0.00113     0.02067    -0.03588     0.02097     0.04677
 PX  C   4  -0.00482     0.00857     0.01374    -0.02579    -0.00130     0.02606
 PY  C   4  -0.00398    -0.00675     0.00892     0.00758     0.01135    -0.02022
 PZ  C   4   0.13844    -0.00683    -0.31553     0.26474    -0.20350    -0.26213
  
  S  C   5   0.02098     0.02950    -0.01689    -0.00758    -0.04494    -0.00280
 PX  C   5  -0.00223    -0.01630    -0.00705     0.02776     0.01062    -0.02317
 PY  C   5   0.01837     0.02457     0.01206    -0.02323     0.00214     0.01763
 PZ  C   5   0.25027     0.36416     0.06376    -0.29491    -0.15783     0.19291
  
  S  C   6  -0.02019    -0.02920     0.02843     0.00689     0.06446     0.00383
 PX  C   6   0.00360     0.00575    -0.00273    -0.00457    -0.00438     0.00378
 PY  C   6  -0.00751    -0.00651    -0.01037     0.00554    -0.01133    -0.00613
 PZ  C   6  -0.20855    -0.27300     0.20568     0.11271     0.36227    -0.04482
  
  S  C   7  -0.03398    -0.01762    -0.00373    -0.02875    -0.02139     0.06868
 PX  C   7   0.00793     0.00261     0.00283     0.00708     0.00719    -0.01210
 PY  C   7   0.03001     0.01937     0.00528     0.01612     0.03033    -0.03183
 PZ  C   7  -0.35144    -0.18680    -0.04598    -0.16846    -0.26371     0.32697
  
  S  C   8  -0.00363    -0.00492    -0.01776     0.02333    -0.01390    -0.01919
 PX  C   8   0.02693     0.01693    -0.00308     0.01516    -0.00905    -0.01266
 PY  C   8   0.01300     0.01035     0.00647    -0.00288    -0.00100    -0.00041
 PZ  C   8  -0.35341    -0.20335    -0.05061    -0.19116     0.11901     0.36977
  
  S  C   9  -0.00332     0.00904     0.03385    -0.02630     0.01506    -0.01537
 PX  C   9   0.00056    -0.01266    -0.01930     0.00188    -0.00187     0.00615
 PY  C   9  -0.00523     0.00839     0.00182    -0.01091     0.00744    -0.02758
 PZ  C   9  -0.01858     0.17618     0.39426    -0.06044     0.06134    -0.26755
  
  S  C  10   0.00669     0.00315    -0.00784     0.01081    -0.00762    -0.03282
 PX  C  10  -0.01480    -0.00142     0.01425    -0.01495    -0.00960    -0.00363
 PY  C  10  -0.00495    -0.02030    -0.00331     0.00099    -0.01451     0.03738
 PZ  C  10   0.00275     0.29354    -0.33093     0.01284     0.01415    -0.27373
  
  S  C  11   0.02056    -0.01416    -0.00166     0.00722     0.02214     0.04281
 PX  C  11   0.01041    -0.00353    -0.00712     0.00908     0.00829     0.00142
 PY  C  11  -0.01239     0.00999    -0.00246    -0.00937    -0.00276    -0.01669
 PZ  C  11   0.35727    -0.21456    -0.02128     0.19839     0.18880     0.31741
  
  S  H  12  -0.01370     0.01009    -0.00307    -0.00274    -0.01469    -0.02153
  
  S  C  13   0.01269    -0.01238     0.00082     0.03805    -0.02941     0.03797
 PX  C  13  -0.03211     0.01965     0.01883    -0.01594     0.00892    -0.01668
 PY  C  13   0.04061    -0.02027     0.00987     0.02643    -0.02256     0.03045
 PZ  C  13   0.38523    -0.20853    -0.00520     0.27402    -0.22556     0.27848
  
  S  H  14   0.02297     0.01056     0.00037     0.02217     0.01866    -0.04197
  
  S  H  15  -0.00415    -0.00901     0.01295     0.00026     0.03077     0.01002
  
  S  H  16  -0.00352    -0.01194     0.00214     0.01888    -0.00419    -0.02810
  
  S  H  17  -0.00737    -0.01749     0.00814     0.01114     0.02729    -0.00343
  
  S  H  18   0.01147     0.01344    -0.01591     0.00091    -0.03514    -0.00623
  
  S  H  19   0.00461     0.00007     0.00499    -0.00808     0.00400     0.01829
  
  S  H  20  -0.01269     0.01015    -0.00359    -0.02073     0.02274    -0.02049
  
  S  C  21  -0.00834     0.00895    -0.00532     0.00329     0.01380     0.00932
 PX  C  21  -0.02300     0.03712     0.01595     0.04406    -0.02291     0.01082
 PY  C  21   0.00800    -0.01401    -0.00334    -0.01681     0.00281    -0.00768
 PZ  C  21  -0.23031     0.33700     0.06844     0.35673    -0.09560     0.13494
  
  S  C  22  -0.00082     0.00153    -0.00473    -0.00115     0.00489    -0.00385
 PX  C  22   0.02419    -0.02070    -0.03353    -0.02262     0.03756    -0.00047
 PY  C  22  -0.00657     0.00768     0.00918     0.01186    -0.00603     0.00863
 PZ  C  22   0.20615    -0.17660    -0.30208    -0.19155     0.32464    -0.00549
  
  S  C  23  -0.00089    -0.00186    -0.00715    -0.01532     0.00654    -0.01413
 PX  C  23   0.00772    -0.00906     0.02255     0.00367    -0.02728     0.00022
 PY  C  23  -0.00359     0.00559    -0.01030     0.00098     0.01435     0.00102
 PZ  C  23   0.18574    -0.25566     0.21370    -0.17534    -0.34629    -0.15071
  
  S  C  24  -0.01548     0.02613     0.01371     0.04781    -0.00102     0.03632
 PX  C  24  -0.00911     0.01145    -0.00308     0.00416     0.01131     0.00142
 PY  C  24  -0.00910     0.01258    -0.00452     0.00327     0.01511     0.00029
 PZ  C  24  -0.23583     0.33366     0.07042     0.34777     0.13068     0.20455
  
  S  H  25   0.00845    -0.00870     0.00719     0.00104    -0.01074     0.00076
  
  S  H  26   0.00495    -0.00644     0.00351    -0.00222    -0.00648     0.00210
  
  S  H  27   0.00400    -0.00362     0.00758     0.00833    -0.01100     0.00870
  
  S  H  28   0.01163    -0.01973    -0.00375    -0.02833    -0.00775    -0.02106
  
  S  C  29   0.00115    -0.00044     0.01742     0.00914    -0.02946    -0.01081
 PX  C  29  -0.01130    -0.01346     0.01640    -0.03362    -0.00873    -0.02042
 PY  C  29   0.01252    -0.00320     0.00423     0.02567    -0.00337     0.03297
 PZ  C  29  -0.14159    -0.10079     0.32237    -0.24358    -0.26394    -0.20925
  
  S  C  30  -0.00485    -0.00032    -0.03059    -0.04490     0.03563    -0.03644
 PX  C  30   0.01264    -0.00955     0.00027     0.01273    -0.00977     0.01484
 PY  C  30  -0.00002    -0.00610     0.00361    -0.01330    -0.00759    -0.01556
 PZ  C  30  -0.13740     0.00907    -0.37074    -0.29113     0.26232    -0.17728




    ROOT NO.   49          50          51          52          53          54

             2.34872     2.37444     2.79513     3.16438     3.29131     3.36250
  
  
  S  C   1   0.06203    -0.09371     0.21055    -0.03699     0.09644     0.18608
 PX  C   1  -0.02991    -0.01319     0.02703     0.02435    -0.02092     0.05415
 PY  C   1  -0.02680    -0.00726     0.02520     0.01582     0.05881     0.00164
 PZ  C   1   0.33372    -0.06982     0.03902    -0.17618    -0.10723    -0.10173
  
  S  C   2  -0.02415     0.11495    -0.24472    -0.01000    -0.05718    -0.23593
 PX  C   2   0.02455     0.01317    -0.00943    -0.02857     0.02598    -0.00328
 PY  C   2   0.03919     0.03069    -0.05369    -0.04512    -0.01237    -0.05193
 PZ  C   2  -0.24805     0.05235    -0.05158     0.18965     0.09679     0.09982
  
  S  C   3  -0.02410    -0.16011     0.29207     0.07657     0.04764     0.20610
 PX  C   3  -0.03584    -0.00808    -0.03740     0.01631    -0.11487    -0.00558
 PY  C   3  -0.01664    -0.01739     0.01058     0.04085     0.06343    -0.06208
 PZ  C   3   0.07039    -0.03281     0.10398    -0.24400    -0.08356    -0.10099
  
  S  C   4   0.02574     0.16020    -0.25947    -0.11143    -0.24938     0.00285
 PX  C   4   0.02998     0.01934     0.00555    -0.03329     0.04952    -0.00030
 PY  C   4   0.01282    -0.00625     0.06527    -0.00532    -0.01268     0.12533
 PZ  C   4  -0.03959     0.08687    -0.19596     0.23230     0.07541     0.07295
  
  S  C   5   0.03389    -0.12043     0.22215     0.02272     0.24236    -0.00168
 PX  C   5  -0.03658    -0.03109     0.03445     0.05528     0.05029    -0.01930
 PY  C   5  -0.00385     0.00406    -0.01863    -0.00030    -0.03057    -0.02555
 PZ  C   5   0.20848    -0.07941     0.08994    -0.18394    -0.11330    -0.07811
  
  S  C   6  -0.07456     0.09716    -0.20090     0.03448    -0.19727    -0.06279
 PX  C   6   0.00701     0.01972    -0.03661    -0.01095    -0.02686    -0.01572
 PY  C   6   0.01936     0.00878    -0.00355    -0.02312    -0.04554     0.05686
 PZ  C   6  -0.30950     0.07524    -0.04127     0.16971     0.13156     0.09345
  
  S  C   7   0.08722     0.17461    -0.21345    -0.06775     0.18360    -0.10279
 PX  C   7   0.02507     0.00888     0.05946     0.00162     0.10553     0.06519
 PY  C   7   0.01314     0.04297    -0.00083    -0.02565     0.06983     0.01398
 PZ  C   7   0.12501    -0.04146    -0.01642     0.12608     0.01109     0.05082
  
  S  C   8  -0.07328    -0.17800     0.16854     0.11105     0.12389    -0.19322
 PX  C   8  -0.03216    -0.04360    -0.04032     0.00971    -0.06946    -0.10800
 PY  C   8   0.00359     0.01718    -0.05275    -0.01204    -0.04799    -0.02975
 PZ  C   8  -0.16225    -0.01481     0.12814    -0.12412    -0.05141    -0.00830
  
  S  C   9   0.14537     0.23467    -0.10114    -0.09234     0.05201     0.32394
 PX  C   9   0.01117     0.03981     0.04830     0.02050     0.08287     0.01731
 PY  C   9  -0.00691    -0.00124     0.05834     0.02342    -0.14176     0.08279
 PZ  C   9   0.32717    -0.06783    -0.03960     0.01236     0.01451    -0.08123
  
  S  C  10  -0.13509    -0.23330     0.12918     0.07947    -0.34042    -0.03854
 PX  C  10   0.00674    -0.01429    -0.07002    -0.03106    -0.07678     0.07015
 PY  C  10  -0.01435    -0.02595    -0.02998     0.01226     0.03445    -0.13743
 PZ  C  10  -0.33357     0.06114    -0.01380     0.00923     0.02063     0.02076
  
  S  C  11   0.11964     0.25195     0.02166     0.00212     0.34835    -0.08273
 PX  C  11  -0.01276    -0.00359     0.08355     0.04341    -0.05044    -0.04248
 PY  C  11  -0.00014     0.03533     0.03927     0.03217    -0.01516    -0.02204
 PZ  C  11   0.15549    -0.00797     0.08087    -0.15403    -0.06070    -0.03074
  
  S  H  12  -0.07749    -0.15634    -0.02501     0.00052    -0.21283     0.01280
  
  S  C  13  -0.11727    -0.24688    -0.04852     0.01569     0.08910    -0.32054
 PX  C  13   0.01472    -0.04863    -0.08795    -0.06021     0.04929     0.01654
 PY  C  13   0.01564     0.04045    -0.04112    -0.01285     0.02298     0.06975
 PZ  C  13  -0.14290     0.02421    -0.02172     0.11848    -0.00660     0.08467
  
  S  H  14  -0.05674    -0.09653     0.13048     0.04305    -0.09250     0.02735
  
  S  H  15  -0.03969     0.05888    -0.12912     0.02509    -0.04698    -0.11854
  
  S  H  16   0.02085    -0.06209     0.14357     0.00033     0.05717     0.13383
  
  S  H  17  -0.02885     0.06727    -0.13658    -0.00109    -0.13046    -0.01788
  
  S  H  18   0.04208    -0.05927     0.12201    -0.01824     0.13132     0.03336
  
  S  H  19   0.03721     0.09378    -0.10436    -0.06854    -0.04148     0.08652
  
  S  H  20   0.06966     0.12882     0.02615    -0.01883    -0.02093     0.17232
  
  S  C  21   0.05621     0.17697     0.13203     0.13137     0.08063    -0.26354
 PX  C  21  -0.04603    -0.04199    -0.00120    -0.01319    -0.07626    -0.02245
 PY  C  21   0.00773     0.00472     0.01540     0.04553    -0.03167    -0.04279
 PZ  C  21  -0.18007     0.15936     0.13306    -0.25342    -0.01101    -0.03349
  
  S  C  22  -0.02929    -0.13774    -0.13755    -0.18093     0.04985     0.29466
 PX  C  22   0.04052     0.01782     0.01391     0.05015    -0.00894    -0.01651
 PY  C  22   0.00047     0.00996    -0.01156    -0.02992     0.09526    -0.03552
 PZ  C  22   0.26210    -0.18196    -0.12420     0.23178     0.00598     0.03141
  
  S  C  23   0.03953     0.16855     0.17692     0.20994    -0.23414    -0.13451
 PX  C  23  -0.02564    -0.02404    -0.01251    -0.00490     0.03127    -0.08847
 PY  C  23   0.00776    -0.01795    -0.01422    -0.00982    -0.03407     0.07741
 PZ  C  23  -0.27229     0.16579     0.10986    -0.23174     0.00719    -0.03949
  
  S  C  24  -0.04366    -0.24312    -0.21111    -0.15064     0.22944    -0.04815
 PX  C  24   0.01989     0.03068     0.00051    -0.02693     0.02475     0.09415
 PY  C  24   0.03323     0.06778     0.03270     0.01582    -0.00953     0.06063
 PZ  C  24   0.19904    -0.09284    -0.07381     0.25232    -0.03886     0.06201
  
  S  H  25  -0.02952    -0.10105    -0.08603    -0.08164    -0.01525     0.14824
  
  S  H  26   0.01409     0.08240     0.08010     0.10314    -0.01332    -0.18557
  
  S  H  27  -0.03340    -0.11359    -0.11763    -0.14590     0.17332     0.07663
  
  S  H  28   0.01531     0.14249     0.13460     0.09322    -0.12915     0.00088
  
  S  C  29  -0.09770    -0.27633    -0.15237    -0.08870    -0.17404     0.11849
 PX  C  29   0.02484     0.03486    -0.01893    -0.00795     0.01390     0.11169
 PY  C  29  -0.00079    -0.03521    -0.06640    -0.03880     0.13992    -0.08563
 PZ  C  29   0.02481    -0.09390    -0.14512     0.30863     0.03974     0.05468
  
  S  C  30   0.09516     0.31140     0.20155     0.09133    -0.12529     0.17284
 PX  C  30  -0.01755     0.00251     0.05417     0.05643     0.02294    -0.13209
 PY  C  30  -0.01463    -0.01443     0.01504     0.02023    -0.12584     0.05203
 PZ  C  30  -0.03685     0.03902     0.08433    -0.28864     0.01647    -0.10351




    ROOT NO.   55          56          57          58          59          60

             3.57090     3.63667     3.78550     3.88506     4.11947     4.25114
  
  
  S  C   1   0.19124     0.15291    -0.25458     0.23812     0.07320     0.09563
 PX  C   1  -0.03053    -0.00021     0.10915     0.07602     0.04083     0.12219
 PY  C   1   0.01459     0.03002    -0.08392    -0.05197    -0.03370    -0.05528
 PZ  C   1   0.06669    -0.09969     0.07008    -0.05149    -0.01559     0.01184
  
  S  C   2  -0.07019    -0.10101    -0.08123    -0.26075    -0.11164    -0.29288
 PX  C   2   0.07695     0.04256    -0.16550     0.04028     0.00394    -0.00540
 PY  C   2   0.05651    -0.00199    -0.10380     0.02252     0.00873     0.04402
 PZ  C   2  -0.10950     0.10684    -0.04884     0.06620     0.02468     0.01584
  
  S  C   3  -0.09358    -0.00482     0.36523     0.05344     0.06194     0.00109
 PX  C   3  -0.02701    -0.04734    -0.01167     0.05952     0.02490    -0.18038
 PY  C   3  -0.08064    -0.02396     0.04323    -0.17459    -0.06803    -0.07604
 PZ  C   3   0.24014    -0.14556     0.02875    -0.08307    -0.03683     0.01897
  
  S  C   4   0.15176     0.00511    -0.20809     0.27553     0.08067    -0.01307
 PX  C   4   0.06564     0.03050    -0.11093    -0.08679    -0.04326    -0.16224
 PY  C   4   0.01755     0.01616     0.14175     0.06510     0.05419    -0.09225
 PZ  C   4  -0.21908     0.15760    -0.09495     0.08783     0.03512    -0.04826
  
  S  C   5   0.02838     0.05395    -0.12572    -0.27262    -0.11225    -0.30338
 PX  C   5  -0.09309    -0.02690     0.14576    -0.06835     0.00259     0.05349
 PY  C   5  -0.03617    -0.03986     0.08503    -0.03779    -0.00827    -0.02396
 PZ  C   5   0.10362    -0.11218     0.08743    -0.01810    -0.00253     0.06509
  
  S  C   6  -0.17249    -0.13660     0.36729     0.03306     0.05250     0.11769
 PX  C   6   0.00161    -0.00806    -0.00739     0.00670    -0.00346     0.03090
 PY  C   6   0.05052     0.02768    -0.02780     0.15762     0.06093     0.13207
 PZ  C   6  -0.04901     0.11328    -0.12205     0.02823     0.00071    -0.04012
  
  S  C   7   0.07544     0.13021    -0.14622    -0.17344    -0.09374     0.34045
 PX  C   7   0.00039     0.03404     0.15086    -0.02583     0.02288     0.07645
 PY  C   7   0.04770     0.00112     0.07535    -0.00609     0.03739    -0.05321
 PZ  C   7  -0.23912     0.10199    -0.00044     0.07807     0.04440    -0.08053
  
  S  C   8  -0.17582    -0.08272    -0.02217    -0.17195    -0.11173     0.32872
 PX  C   8  -0.00987    -0.04513    -0.11705     0.10639     0.04524     0.00456
 PY  C   8   0.00706    -0.00531    -0.05835     0.04901     0.00620     0.08176
 PZ  C   8   0.22411    -0.13330     0.05407    -0.05146    -0.03425     0.02978
  
  S  C   9   0.10666     0.17170     0.22665    -0.05825    -0.05530    -0.11455
 PX  C   9  -0.02889    -0.00816     0.02873    -0.11005    -0.08652     0.12978
 PY  C   9  -0.05095    -0.03450    -0.04642     0.03176    -0.13934    -0.04387
 PZ  C   9  -0.29635     0.13625    -0.07654     0.05834     0.05042    -0.01289
  
  S  C  10  -0.11099    -0.11841    -0.17279     0.15379    -0.08128    -0.09876
 PX  C  10   0.01626     0.11638    -0.01407    -0.07402    -0.12993     0.05100
 PY  C  10  -0.02446    -0.01990    -0.11847    -0.03987     0.00186     0.15422
 PZ  C  10   0.30604    -0.14968     0.04190    -0.06449    -0.03542     0.03962
  
  S  C  11   0.02417    -0.18328     0.07261     0.05557     0.29012    -0.04675
 PX  C  11  -0.05251    -0.11924    -0.06078     0.11886     0.01215    -0.04107
 PY  C  11  -0.01715    -0.05321    -0.03652     0.04961    -0.12067     0.01651
 PZ  C  11  -0.22296     0.14358    -0.03198     0.02434    -0.00568    -0.01149
  
  S  H  12  -0.00891     0.14982    -0.05631    -0.03459    -0.30031     0.07604
  
  S  C  13   0.04793    -0.00603    -0.03968     0.06042     0.34405    -0.02291
 PX  C  13   0.04501     0.12705     0.10220     0.01164    -0.00869    -0.03103
 PY  C  13   0.05716     0.03993     0.07363    -0.00518     0.04690    -0.02658
 PZ  C  13   0.17769    -0.10464     0.03149    -0.03607    -0.07256     0.02238
  
  S  H  14  -0.04441    -0.11963     0.09917     0.10443     0.09350    -0.31820
  
  S  H  15  -0.11893    -0.08922     0.15088    -0.15611    -0.05203    -0.02284
  
  S  H  16   0.05242     0.07035     0.04000     0.15905     0.07051     0.25387
  
  S  H  17  -0.03355    -0.03163     0.07182     0.16676     0.07043     0.26216
  
  S  H  18   0.10640     0.09002    -0.24274    -0.02280    -0.03781    -0.03464
  
  S  H  19   0.12442     0.05000    -0.00343     0.09710     0.10337    -0.29405
  
  S  H  20  -0.04657     0.01131     0.02876    -0.03345    -0.29934     0.04518
  
  S  C  21   0.06454     0.02730     0.08710     0.27881    -0.29394    -0.04934
 PX  C  21   0.04508     0.15931     0.06052    -0.02601    -0.01712    -0.02211
 PY  C  21   0.04090     0.06515     0.02329    -0.02187     0.04065    -0.00154
 PZ  C  21  -0.13215     0.07069    -0.01550     0.00376     0.02929    -0.00371
  
  S  C  22  -0.15835    -0.25029    -0.14059    -0.10307     0.06305     0.04679
 PX  C  22   0.01558     0.00105     0.00248     0.00976    -0.04082     0.00433
 PY  C  22  -0.02173    -0.07374     0.01182     0.13177    -0.13189    -0.02073
 PZ  C  22   0.09474    -0.06227     0.00516    -0.00345    -0.01025     0.00309
  
  S  C  23   0.13165     0.27774     0.05316    -0.15718     0.13152     0.01538
 PX  C  23   0.04716     0.09740     0.07567     0.07080    -0.08435    -0.02888
 PY  C  23  -0.02500    -0.02901    -0.04107    -0.08262     0.05858     0.02517
 PZ  C  23  -0.09012     0.05879    -0.00280     0.00968     0.00973    -0.00424
  
  S  C  24   0.02267     0.02462     0.12979     0.22076    -0.24546    -0.06246
 PX  C  24  -0.06957    -0.15555    -0.06978     0.01570    -0.02147     0.01006
 PY  C  24  -0.03410    -0.09112    -0.03217     0.03577    -0.08600    -0.00967
 PZ  C  24   0.10627    -0.07422    -0.01107    -0.04669     0.01593     0.01597
  
  S  H  25  -0.03936    -0.04081    -0.05961    -0.18372     0.25468     0.03530
  
  S  H  26   0.09348     0.13618     0.08091     0.06208     0.00647    -0.03043
  
  S  H  27  -0.09300    -0.20599    -0.04226     0.11799    -0.06268    -0.01204
  
  S  H  28  -0.01785    -0.03033    -0.09781    -0.15132     0.23008     0.04858
  
  S  C  29   0.06652     0.30180     0.07220    -0.20393     0.05725     0.01090
 PX  C  29  -0.02929    -0.09855    -0.05367    -0.10314     0.12947     0.02390
 PY  C  29   0.05167     0.04668     0.08241     0.03353     0.11498    -0.03215
 PZ  C  29   0.21865    -0.14987     0.02022    -0.01012    -0.03956     0.01392
  
  S  C  30  -0.12559    -0.25363    -0.16532    -0.03631    -0.09143     0.03981
 PX  C  30   0.00137    -0.06284    -0.05167     0.01135     0.17079     0.00564
 PY  C  30   0.01270     0.09207    -0.02037    -0.14350     0.08552     0.02995
 PZ  C  30  -0.17793     0.15259     0.00247     0.03638     0.04910    -0.02214




    ROOT NO.   61          62          63          64          65          66

             5.10685     5.34173     5.50334     5.68261     6.07128     6.32255
  
  
  S  C   1  -0.05389     0.03669    -0.29543    -0.12836     0.06783    -0.02849
 PX  C   1   0.06148    -0.07642     0.09429     0.17483    -0.13972     0.08965
 PY  C   1  -0.00959     0.02960     0.29945     0.03187    -0.01367     0.00224
 PZ  C   1   0.00365    -0.00072     0.05888     0.01756    -0.00997     0.00401
  
  S  C   2  -0.08169     0.09953    -0.08834    -0.19520     0.14463    -0.09541
 PX  C   2  -0.05100     0.04254    -0.19064    -0.10743     0.05844    -0.02765
 PY  C   2  -0.01111    -0.01151     0.05428     0.10772    -0.17629     0.18651
 PZ  C   2   0.00354    -0.00704     0.01221     0.02245    -0.02854     0.02932
  
  S  C   3   0.07174    -0.04435     0.03871    -0.03412     0.14482    -0.16445
 PX  C   3  -0.09452     0.09224     0.01875    -0.09273    -0.03486     0.08625
 PY  C   3  -0.00631     0.02708    -0.04346    -0.09823     0.13584    -0.13224
 PZ  C   3  -0.00668     0.00653    -0.01402    -0.00770     0.00049    -0.00128
  
  S  C   4  -0.05172     0.02411     0.01704     0.04319    -0.12313     0.12050
 PX  C   4   0.06434    -0.07645    -0.03773     0.12840    -0.09636     0.06386
 PY  C   4   0.09715    -0.08227     0.06316     0.02966     0.12938    -0.17464
 PZ  C   4   0.00357    -0.00749    -0.00399     0.01596    -0.01876     0.01555
  
  S  C   5   0.09836    -0.11532    -0.10313     0.17874    -0.13384     0.07750
 PX  C   5   0.02251    -0.01128    -0.02768    -0.05026     0.10330    -0.09051
 PY  C   5   0.05088    -0.07794    -0.19064     0.11829    -0.13405     0.10555
 PZ  C   5  -0.01127     0.01505     0.02700    -0.02360     0.02444    -0.01818
  
  S  C   6   0.06627    -0.09424    -0.27882     0.08195    -0.06642     0.04301
 PX  C   6  -0.04679     0.08059     0.31145    -0.07697     0.08402    -0.05931
 PY  C   6  -0.05713     0.06208    -0.08205    -0.13846     0.10025    -0.05406
 PZ  C   6  -0.01086     0.01466     0.03018    -0.01612     0.01122    -0.00604
  
  S  C   7   0.13377    -0.12238    -0.03621     0.11474     0.04386    -0.12052
 PX  C   7   0.07208    -0.05720    -0.02812    -0.01448     0.11062    -0.13927
 PY  C   7  -0.03729     0.05224     0.02431    -0.13075    -0.03738     0.28046
 PZ  C   7  -0.02015     0.01976     0.01173    -0.02788    -0.00730     0.04342
  
  S  C   8  -0.17504     0.15644    -0.05447    -0.11711    -0.06752     0.12421
 PX  C   8   0.00164    -0.05548    -0.00741     0.10380    -0.00790    -0.11183
 PY  C   8  -0.07779     0.07665    -0.04310    -0.06053    -0.10473     0.20281
 PZ  C   8  -0.00700     0.00432     0.00090     0.00192    -0.00139    -0.00516
  
  S  C   9   0.05125     0.04612     0.02865    -0.13184     0.03046     0.13816
 PX  C   9  -0.11655     0.10985    -0.02678    -0.08020    -0.05420     0.10372
 PY  C   9  -0.08935     0.06350    -0.00677     0.11155    -0.07810    -0.15699
 PZ  C   9  -0.00226    -0.00591    -0.00304     0.00809    -0.00170    -0.00248
  
  S  C  10  -0.03947     0.00234     0.00696     0.15303    -0.04629    -0.18480
 PX  C  10   0.13681    -0.05928     0.01307    -0.03381     0.07672     0.06021
[...]
  S   H   18    0.1008   -0.0696   -0.0150    0.0362   -0.0334    0.0010    0.2995   -0.0597
  S   H   19    0.1038   -0.2280    0.2328   -0.2447    0.0303   -0.0111    0.0629    0.1734
  S   H   20   -0.1729   -0.1574    0.3671    0.0512   -0.0820    0.0589   -0.0163   -0.2368
  S   C   21   -0.1362   -0.0472   -0.0255   -0.0033    0.0064    0.0585    0.0002    0.0059
  Px  C   21   -0.1508   -0.1023   -0.2037   -0.2355   -0.1171   -0.0992    0.0028    0.0723
  Py  C   21    0.1626    0.0721    0.0562    0.0692    0.0317    0.3257    0.0023    0.1079
  Pz  C   21    0.0280    0.0161    0.0230    0.0293    0.0153    0.0247   -0.0002   -0.0027
  S   C   22   -0.0707   -0.0080    0.0522    0.0454    0.0199   -0.1119   -0.0015   -0.0587
  Px  C   22   -0.0999   -0.0243    0.0327    0.0272    0.0091    0.5174    0.0075    0.1953
  Py  C   22   -0.0878   -0.0315   -0.0370   -0.0340   -0.0162   -0.0634   -0.0005   -0.0046
  Pz  C   22    0.0068    0.0009   -0.0045   -0.0044   -0.0019   -0.0554   -0.0008   -0.0201
  S   C   23    0.0421    0.0183    0.0400    0.0347    0.0153    0.1206    0.0017    0.0052
  Px  C   23    0.1168    0.0332   -0.0099   -0.0095   -0.0083   -0.2073   -0.0038    0.0707
  Py  C   23   -0.0054    0.0131    0.0847    0.0830    0.0370   -0.4225   -0.0061   -0.0863
  Pz  C   23   -0.0029    0.0001    0.0006    0.0010    0.0007    0.0046    0.0001   -0.0098
  S   C   24    0.1174    0.0325   -0.0241   -0.0023    0.0041   -0.0698   -0.0005    0.0648
  Px  C   24   -0.0520   -0.0247   -0.0354   -0.0454   -0.0265   -0.1739   -0.0028    0.0644
  Py  C   24    0.1949    0.0704   -0.2606   -0.2545   -0.1172    0.1848   -0.0018   -0.2196
  Pz  C   24   -0.0186   -0.0056    0.0143    0.0118    0.0051    0.0059    0.0003    0.0012
  S   H   25    0.2432    0.1141    0.1415    0.1499    0.0676    0.2094    0.0004    0.0366
  S   H   26    0.1235    0.0295   -0.0335   -0.0224   -0.0062   -0.3272   -0.0049   -0.1225
  S   H   27   -0.0729   -0.0329   -0.0520   -0.0472   -0.0183    0.2646    0.0043    0.0194
  S   H   28   -0.2053   -0.0690    0.1730    0.1540    0.0658   -0.1387    0.0002    0.1254
  S   C   29   -0.1888   -0.1188   -0.1541   -0.2160   -0.1198    0.0074    0.0002    0.0266
  Px  C   29    0.0982    0.0367   -0.0229   -0.0814   -0.0633   -0.1026    0.0039    0.0889
  Py  C   29   -0.1594   -0.0886    0.1090    0.1207    0.0688   -0.0320    0.0008    0.0834
  Pz  C   29   -0.0089   -0.0044    0.0146    0.0119    0.0045    0.0064   -0.0005   -0.0076
  S   C   30    0.1536    0.0604   -0.1817   -0.2015   -0.1060   -0.0166   -0.0001   -0.0002
  Px  C   30    0.1022    0.0839   -0.0023    0.0498    0.0434    0.0811   -0.0029   -0.2784
  Py  C   30   -0.1597   -0.0871   -0.0453   -0.1388   -0.0985    0.0687   -0.0036   -0.0924
  Pz  C   30   -0.0052   -0.0008    0.0036    0.0154    0.0128    0.0043    0.0002   -0.0027


   Root No.      73        74        75        76        77        78        79        80

                20 a"     22 a'     23 a'     21 a"     22 a"     24 a'     25 a'     23 a"  

                 9.306     9.524    10.128    10.593    11.059    11.623    11.761    12.137
  
  S   C    1    0.0306    0.0869    0.0604   -0.0768   -0.0385    0.0370    0.0184   -0.0101
  Px  C    1    0.1196    0.2427   -0.0135   -0.1998    0.1329   -0.0851   -0.1508    0.1878
  Py  C    1    0.0164    0.1335    0.2084   -0.0819   -0.1891    0.1430    0.1416   -0.1486
  Pz  C    1    0.0079    0.0283    0.0229   -0.0198   -0.0141    0.0110    0.0093   -0.0092
  S   C    2   -0.0663   -0.0832    0.0584    0.0271   -0.0827    0.0688    0.0310   -0.0130
  Px  C    2    0.1206    0.2589    0.0423   -0.2395    0.0575   -0.0072   -0.1245    0.1889
  Py  C    2   -0.2271   -0.2039    0.1957   -0.0397   -0.1865    0.1763   -0.0051    0.0851
  Pz  C    2   -0.0219   -0.0198    0.0199   -0.0045   -0.0191    0.0182   -0.0022    0.0119
  S   C    3   -0.0101   -0.0487   -0.0004    0.0550   -0.0307    0.0187    0.0172   -0.0139
  Px  C    3   -0.2174   -0.1449    0.2559   -0.0575   -0.0365   -0.1524    0.1022   -0.1915
  Py  C    3   -0.0870   -0.0308    0.1389   -0.1105   -0.2279    0.3421   -0.1192    0.3093
  Pz  C    3   -0.0195   -0.0087    0.0236   -0.0103   -0.0047   -0.0081    0.0062   -0.0104
  S   C    4   -0.0220   -0.0484   -0.0030    0.0645    0.0198   -0.0275   -0.0207    0.0168
  Px  C    4   -0.0591   -0.1335   -0.2510   -0.0997    0.2346   -0.1500    0.0630   -0.1904
  Py  C    4   -0.0263   -0.1293   -0.1342   -0.0010   -0.0912    0.3248   -0.1421    0.3045
  Pz  C    4   -0.0040   -0.0102   -0.0117    0.0010    0.0087   -0.0025    0.0005   -0.0029
  S   C    5   -0.0482   -0.0867   -0.0666    0.0333    0.0759   -0.0640   -0.0270    0.0079
  Px  C    5   -0.0244   -0.0516   -0.1727   -0.1535    0.1601   -0.0950    0.0914   -0.2138
  Py  C    5    0.2033    0.3200    0.0897   -0.1942   -0.1045    0.1194    0.1046   -0.1254
  Pz  C    5   -0.0132   -0.0197   -0.0088    0.0062    0.0108   -0.0102   -0.0043    0.0013
  S   C    6    0.0548    0.0658   -0.0518   -0.0672    0.0543   -0.0247   -0.0151    0.0019
  Px  C    6    0.1636    0.1675   -0.1472   -0.1503    0.1254   -0.0537   -0.0313    0.0048
  Py  C    6    0.0698    0.1667    0.1449   -0.1585   -0.1857    0.1735    0.2106   -0.2549
  Pz  C    6    0.0013    0.0028    0.0063   -0.0014   -0.0088    0.0068    0.0079   -0.0086
  S   C    7    0.1091    0.0278   -0.0900    0.0766   -0.0378    0.0737    0.0270    0.0273
  Px  C    7   -0.1385   -0.1441    0.1606    0.0228   -0.0589   -0.0948    0.1484   -0.1950
  Py  C    7    0.2949    0.0133   -0.1347    0.2231   -0.1226    0.1133    0.1543   -0.0246
  Pz  C    7    0.0145   -0.0047   -0.0023    0.0131   -0.0088    0.0027    0.0138   -0.0079
  S   C    8    0.0213    0.0564    0.0935    0.0840    0.0142   -0.0912   -0.0351   -0.0142
  Px  C    8    0.0271   -0.0100    0.0399    0.2071    0.0797   -0.0559   -0.2061    0.1118
  Py  C    8   -0.0856   -0.1912   -0.2125   -0.1106    0.0087    0.1752   -0.0215    0.1154
  Pz  C    8   -0.0014   -0.0090   -0.0064    0.0133    0.0082    0.0013   -0.0182    0.0131
  S   C    9   -0.0075    0.0345    0.0383   -0.0065   -0.0107   -0.0330   -0.0053   -0.0004
  Px  C    9    0.0275    0.0419    0.1150    0.2624    0.1124   -0.1459   -0.2233    0.0953
  Py  C    9    0.0048    0.0751   -0.1187    0.1649    0.1175    0.1092    0.4043    0.0564
  Pz  C    9    0.0024   -0.0016    0.0019    0.0100    0.0056   -0.0036   -0.0122    0.0020
  S   C   10   -0.0087    0.0373   -0.0469   -0.0031    0.0043    0.0284    0.0057    0.0078
  Px  C   10    0.2347   -0.0130    0.0503    0.2116   -0.2340   -0.0472   -0.2162   -0.0978
  Py  C   10    0.1322   -0.0475   -0.1465    0.1431   -0.0667    0.1663    0.4054   -0.0574
  Pz  C   10    0.0068   -0.0017   -0.0003    0.0071   -0.0058    0.0023    0.0053   -0.0038
  S   C   11   -0.1148    0.0426   -0.0808   -0.0757    0.0652    0.0667    0.0290    0.0038
  Px  C   11    0.1417    0.0341   -0.0172    0.1699   -0.1621    0.0166   -0.2059   -0.0987
  Py  C   11   -0.2574    0.1329   -0.1914   -0.0916    0.0517    0.1491   -0.0428   -0.0675
  Pz  C   11   -0.0054    0.0025   -0.0022   -0.0013   -0.0003    0.0004    0.0004   -0.0010
  S   H   12   -0.1518    0.0528   -0.0846   -0.0717    0.0669    0.0739    0.0339   -0.0123
  S   C   13   -0.0237    0.0062    0.0556   -0.0785   -0.0373   -0.0571   -0.0197    0.0065
  Px  C   13   -0.0948    0.1318    0.1521    0.0442    0.0249   -0.1825    0.1661    0.1530
  Py  C   13    0.0713    0.0315   -0.0803    0.2443    0.1091    0.0582    0.1439    0.0323
  Pz  C   13   -0.0129    0.0057    0.0198   -0.0188   -0.0098   -0.0190   -0.0017    0.0075
  S   H   14    0.1807    0.0398   -0.1043    0.0949   -0.0461    0.0859    0.0432    0.0386
  S   H   15    0.0436    0.1452    0.1023   -0.1057   -0.0536    0.0466    0.0217   -0.0130
  S   H   16   -0.1534   -0.1805    0.0865    0.0479   -0.1122    0.0952    0.0312   -0.0058
  S   H   17   -0.1142   -0.1799   -0.0918    0.0570    0.1001   -0.0943   -0.0264   -0.0008
  S   H   18    0.0935    0.0921   -0.0916   -0.0842    0.0783   -0.0372   -0.0210    0.0060
  S   H   19    0.0499    0.0937    0.1177    0.0964    0.0195   -0.1083   -0.0456   -0.0356
  S   H   20   -0.0627    0.0223    0.0879   -0.1001   -0.0529   -0.0889   -0.0296    0.0293
  S   C   21    0.0753   -0.0674    0.0803   -0.0072    0.1021    0.0481    0.0199    0.0146
  Px  C   21   -0.1147    0.0347   -0.1544   -0.1862   -0.1191   -0.1228    0.1254    0.2045
  Py  C   21    0.2396   -0.2459    0.1258   -0.1435    0.1922    0.0653    0.1028    0.1405
  Pz  C   21    0.0217   -0.0136    0.0210    0.0132    0.0200    0.0152   -0.0088   -0.0154
  S   C   22   -0.0344    0.0531    0.0347    0.0732    0.0292    0.0184    0.0015   -0.0065
  Px  C   22    0.0871   -0.1378   -0.1050   -0.1705   -0.0784   -0.0458   -0.0049    0.0091
  Py  C   22    0.1203   -0.1280    0.1784   -0.0885    0.2838    0.0852    0.1990    0.2604
  Pz  C   22   -0.0064    0.0113    0.0145    0.0151    0.0141    0.0063    0.0053    0.0053
  S   C   23   -0.0745    0.0784   -0.0651    0.0712   -0.0659   -0.0166   -0.0133   -0.0103
  Px  C   23    0.1873   -0.2152   -0.0138   -0.2407   -0.1096   -0.0624   -0.1319   -0.1777
  Py  C   23    0.1287   -0.1021    0.2007   -0.0251    0.2281    0.0695    0.1196    0.1444
  Pz  C   23   -0.0115    0.0143    0.0085    0.0182    0.0168    0.0074    0.0145    0.0191
  S   C   24    0.0779   -0.0840   -0.0505   -0.0602   -0.0886   -0.0485   -0.0206   -0.0188
  Px  C   24    0.1887   -0.2209    0.0374   -0.2551   -0.0136   -0.0112   -0.1188   -0.1732
  Py  C   24   -0.1700    0.1569    0.1690    0.0105    0.2125    0.1156   -0.0339   -0.0675
  Pz  C   24   -0.0081    0.0107   -0.0044    0.0163   -0.0002    0.0003    0.0080    0.0109
  S   H   25    0.1546   -0.1332    0.1050   -0.0166    0.1338    0.0745    0.0121    0.0070
  S   H   26   -0.0452    0.0784    0.0727    0.1024    0.0592    0.0332    0.0072    0.0007
  S   H   27   -0.1187    0.1152   -0.0868    0.0865   -0.0683   -0.0132   -0.0116   -0.0092
  S   H   28    0.1343   -0.1357   -0.0719   -0.0744   -0.1095   -0.0635   -0.0151   -0.0127
  S   C   29    0.0048   -0.0339    0.0112   -0.0609    0.0505    0.0187    0.0196    0.0189
  Px  C   29   -0.1705    0.0889   -0.2423   -0.1566   -0.2211   -0.1547    0.1002    0.1775
  Py  C   29   -0.1437    0.1153   -0.1421    0.0232    0.1579    0.3327   -0.1890   -0.2225
  Pz  C   29    0.0102   -0.0041    0.0158    0.0142    0.0180    0.0173   -0.0118   -0.0185
  S   C   30    0.0301   -0.0474    0.0033   -0.0638   -0.0269   -0.0197   -0.0096   -0.0077
  Px  C   30   -0.0944    0.1148    0.2188   -0.0378   -0.0025   -0.2301    0.1298    0.1387
  Py  C   30   -0.0685    0.0369    0.1279   -0.0452    0.3123    0.3039   -0.1697   -0.2405
  Pz  C   30   -0.0041    0.0063    0.0046    0.0049    0.0076    0.0027    0.0016   -0.0003


   Root No.      81        82        83        84

                81 ????   26 a'     83 ????   24 a"  

                12.507    12.734    13.234    14.514
  
  S   C    1   -0.0546   -0.0214    0.0099    0.0399
  Px  C    1   -0.1440   -0.2956   -0.1729    0.0997
  Py  C    1   -0.0396    0.1417    0.1363    0.0272
  Pz  C    1   -0.0111    0.0030    0.0075    0.0068
  S   C    2   -0.0069    0.0187    0.0253    0.0262
  Px  C    2   -0.1870   -0.3117   -0.1561    0.1466
  Py  C    2   -0.1068   -0.1097   -0.0067    0.1195
  Pz  C    2   -0.0111   -0.0152   -0.0042    0.0125
  S   C    3    0.0064    0.0048   -0.0090    0.0291
  Px  C    3   -0.2285   -0.1837   -0.2054    0.2328
  Py  C    3   -0.0791   -0.1661    0.0417    0.1036
  Pz  C    3   -0.0205   -0.0184   -0.0161    0.0195
  S   C    4    0.0096   -0.0034    0.0113    0.0294
  Px  C    4   -0.2413    0.0586    0.2050    0.2328
  Py  C    4   -0.0671   -0.0309    0.2571    0.1434
  Pz  C    4   -0.0097    0.0024    0.0140    0.0142
  S   C    5   -0.0197   -0.0262   -0.0074    0.0322
  Px  C    5   -0.2402    0.0813    0.2017    0.1971
  Py  C    5   -0.0982    0.1156    0.1624    0.0599
  Pz  C    5   -0.0018   -0.0045   -0.0035    0.0025
  S   C    6   -0.0574   -0.0273    0.0135    0.0407
  Px  C    6   -0.1164   -0.0583    0.0231    0.0791
  Py  C    6   -0.1097    0.2359    0.2631    0.0743
  Pz  C    6   -0.0002    0.0090    0.0072    0.0001
  S   C    7    0.0650    0.0174   -0.0003    0.0057
  Px  C    7   -0.1837   -0.1749   -0.2189    0.2572
  Py  C    7    0.0350   -0.0932   -0.1171    0.1492
  Pz  C    7   -0.0069   -0.0127   -0.0134    0.0180
  S   C    8    0.0523    0.0233   -0.0255    0.0038
  Px  C    8   -0.0745    0.0825    0.2788    0.2762
  Py  C    8   -0.1343   -0.0306    0.1962    0.1375
  Pz  C    8   -0.0109    0.0058    0.0288    0.0260
  S   C    9    0.0578    0.0069   -0.0226   -0.0100
  Px  C    9   -0.0068    0.0927    0.2501    0.2764
  Py  C    9    0.1504   -0.2363    0.0785    0.1122
  Pz  C    9   -0.0070    0.0053    0.0111    0.0114
  S   C   10    0.0561    0.0342   -0.0122   -0.0023
  Px  C   10   -0.0485    0.1334   -0.1991    0.2947
  Py  C   10    0.0256   -0.2470   -0.1389    0.1290
  Pz  C   10   -0.0010   -0.0037   -0.0072    0.0094
  S   C   11    0.0645    0.0217   -0.0188   -0.0114
  Px  C   11    0.0265    0.1761   -0.2185    0.2898
  Py  C   11    0.1416    0.1116   -0.1605    0.1360
  Pz  C   11    0.0012   -0.0009   -0.0005    0.0007
  S   H   12    0.0509   -0.0012   -0.0188   -0.0071
  S   C   13    0.0457    0.0183   -0.0104   -0.0166
  Px  C   13    0.2690   -0.0859    0.1839    0.2164
  Py  C   13    0.0572   -0.1129    0.1028    0.1393
  Pz  C   13    0.0129    0.0028    0.0042    0.0027
  S   H   14    0.0531   -0.0103   -0.0001    0.0074
  S   H   15   -0.0622   -0.0196    0.0157    0.0399
  S   H   16    0.0042    0.0338    0.0405    0.0123
  S   H   17   -0.0120   -0.0329   -0.0310    0.0166
  S   H   18   -0.0625   -0.0378    0.0049    0.0392
  S   H   19    0.0352    0.0380   -0.0249    0.0011
  S   H   20    0.0357    0.0325    0.0049   -0.0051
  S   C   21   -0.0288    0.0141   -0.0051   -0.0279
  Px  C   21    0.1403    0.2498   -0.1497    0.1840
  Py  C   21    0.0163    0.1958   -0.1229    0.0639
  Pz  C   21   -0.0131   -0.0177    0.0104   -0.0160
  S   C   22   -0.0566   -0.0214    0.0160   -0.0351
  Px  C   22    0.1248    0.0335   -0.0242    0.0695
  Py  C   22   -0.0401    0.3184   -0.1904    0.0848
  Pz  C   22   -0.0132    0.0041   -0.0020   -0.0047
  S   C   23   -0.0721   -0.0174    0.0082   -0.0371
  Px  C   23    0.3057   -0.1881    0.1145    0.0720
  Py  C   23   -0.0360    0.1623   -0.0912    0.0339
  Pz  C   23   -0.0258    0.0207   -0.0124   -0.0049
  S   C   24    0.0070   -0.0295    0.0188   -0.0217
  Px  C   24    0.3571   -0.1672    0.0993    0.1116
  Py  C   24    0.1877   -0.0271    0.0078    0.1022
  Pz  C   24   -0.0220    0.0096   -0.0054   -0.0061
  S   H   25   -0.0253    0.0275   -0.0220   -0.0135
  S   H   26   -0.0738   -0.0092    0.0068   -0.0348
  S   H   27   -0.0733   -0.0158    0.0072   -0.0333
  S   H   28    0.0126   -0.0323    0.0246   -0.0132
  S   C   29    0.0171    0.0110    0.0051   -0.0222
  Px  C   29    0.1448    0.2349   -0.1569    0.2153
  Py  C   29    0.1247    0.0949   -0.2099    0.1570
  Pz  C   29   -0.0102   -0.0174    0.0086   -0.0131
  S   C   30    0.0028   -0.0005   -0.0068   -0.0283
  Px  C   30    0.2948   -0.0728    0.1666    0.1818
  Py  C   30    0.2280   -0.0598   -0.0420    0.1018
  Pz  C   30    0.0080   -0.0023    0.0028    0.0062


              NET ATOMIC CHARGES AND DIPOLE CONTRIBUTIONS

  ATOM NO.   TYPE          CHARGE      No. of ELECS.   s-Pop       p-Pop       
    1          C          -0.015934        4.0159     1.08413     2.93180
    2          C          -0.037120        4.0371     1.09871     2.93841
    3          C           0.009444        3.9906     1.07173     2.91882
    4          C           0.014760        3.9852     1.05663     2.92861
    5          C          -0.032592        4.0326     1.10043     2.93216
    6          C          -0.025010        4.0250     1.09258     2.93243
    7          C          -0.039019        4.0390     1.10553     2.93349
    8          C          -0.020142        4.0201     1.08381     2.93633
    9          C           0.005953        3.9940     1.06901     2.92504
   10          C           0.018431        3.9816     1.06550     2.91607
   11          C          -0.037730        4.0377     1.10771     2.93002
   12          H           0.013934        0.9861     0.98607
   13          C          -0.042039        4.0420     1.12187     2.92016
   14          H           0.021627        0.9784     0.97837
   15          H           0.022361        0.9776     0.97764
   16          H           0.030322        0.9697     0.96968
   17          H           0.026051        0.9739     0.97395
   18          H           0.021852        0.9781     0.97815
   19          H           0.021362        0.9786     0.97864
   20          H           0.024146        0.9759     0.97585
   21          C          -0.031041        4.0310     1.09973     2.93131
   22          C          -0.026718        4.0267     1.09746     2.92926
   23          C          -0.016002        4.0160     1.09645     2.91955
   24          C          -0.023908        4.0239     1.10656     2.91735
   25          H           0.025409        0.9746     0.97459
   26          H           0.017584        0.9824     0.98242
   27          H           0.027424        0.9726     0.97258
   28          H           0.026176        0.9738     0.97382
   29          C           0.020379        3.9796     1.06409     2.91553
   30          C           0.000042        4.0000     1.08926     2.91070
 DIPOLE           X         Y         Z       TOTAL
 POINT-CHG.    -0.123     0.182    -0.144     0.262
 HYBRID         0.017     0.033    -0.749     0.750
 SUM           -0.105     0.215    -0.893     0.924


          ATOMIC ORBITAL ELECTRON POPULATIONS

     Atom    s        px        py        pz   
    1  C   1.08413   0.98068   0.95708   0.99404
    2  C   1.09871   0.97047   0.95719   1.01075
    3  C   1.07173   0.97976   0.96604   0.97302
    4  C   1.05663   0.97096   0.97234   0.98531
    5  C   1.10043   0.97692   0.95564   0.99959
    6  C   1.09258   0.94330   0.98747   1.00166
    7  C   1.10553   0.97238   0.94211   1.01901
    8  C   1.08381   0.97526   0.95332   1.00775
    9  C   1.06901   0.96991   0.96788   0.98724
   10  C   1.06550   0.96885   0.97228   0.97494
   11  C   1.10771   0.95903   0.93659   1.03440
   12  H   0.98607
   13  C   1.12187   0.96054   0.95825   1.00138
   14  H   0.97837
   15  H   0.97764
   16  H   0.96968
   17  H   0.97395
   18  H   0.97815
   19  H   0.97864
   20  H   0.97585
   21  C   1.09973   0.97491   0.95085   1.00555
   22  C   1.09746   0.94803   0.97889   1.00233
   23  C   1.09645   0.97688   0.94943   0.99324
   24  C   1.10656   0.96956   0.94278   1.00501
   25  H   0.97459
   26  H   0.98242
   27  H   0.97258
   28  H   0.97382
   29  C   1.06409   0.97612   0.96501   0.97441
   30  C   1.08926   0.96330   0.95869   0.98871

 **********************
 *                    *
 * JOB ENDED NORMALLY *
 *                    *
 **********************



 TOTAL JOB TIME:             0.78 SECONDS

 == MOPAC DONE ==


          MOPAC Job: "./tetraceneTraj/tetracene_1123.mop" ended normally on Feb 15, 2023, at 11:30.

rm: cannot remove ./tetraceneTraj/tetracene_1123.cim: No such file or directory
rm: cannot remove ./tetraceneTraj/tetracene_1123.end: No such file or directory
rm: cannot remove ./tetraceneTraj/tetracene_1123.log: No such file or directory
rm: cannot remove ./tetraceneTraj/tetracene_1123.temp: No such file or directory
rm: cannot remove ./tetraceneTraj/tetracene_1123.ple: No such file or directory
rm: cannot remove ./tetraceneTraj/tetracene_1123.sts: No such file or directory
