 *******************************************************************************
 ** Site#:    0         For non-commercial use only    Version 20.173L 64BITS **
 *******************************************************************************
 ** Cite this program as: MOPAC2016, Version: 20.173L, James J. P. Stewart,   **
 ** Stewart Computational Chemistry, web-site: HTTP://OpenMOPAC.net.          **
 *******************************************************************************
 **                                                                           **
 **                                MOPAC2016                                  **
 **                                                                           **
 *******************************************************************************

                              INDO CALCULATION RESULTS

 *******************************************************************************
 *  CALCULATION DONE:                                Wed Feb 15 11:27:16 2023  *
 *  INDO       - The INDO Hamiltonian to be used
 *
 *
 *
 *                 CHARGE ON SYSTEM = 0
 *
 *
 *
 *  C.I.=(N,M) - 3 DOUBLY FILLED LEVELS USED IN A C.I. INVOLVING 6 M.O.'S
 *  T=         - A TIME OF 172800.0 SECONDS REQUESTED
 *  DUMP=N     - RESTART FILE WRITTEN EVERY 7200.0 SECONDS REQUESTED
 *  RELSCF     - DEFAULT SCF CRITERION MULTIPLIED BY 0.0000
 *              (DEFAULT SCF CRITERION = 0.00010)
 *  ALLVEC     - PRINT ALL EIGENVECTORS
 **********
 *  WARNING: Specified print options may not behave as expected with INDO
 **********
 *******************************************************************************
INDO C.I.=(6,3) AllVEC CHARGE=0 RELSCF=0.000001


   ATOM   CHEMICAL          X               Y               Z
  NUMBER   SYMBOL      (ANGSTROMS)     (ANGSTROMS)     (ANGSTROMS)
 
     1       C         18.47465109  *  19.52217359  *  22.26116072  *
     2       C         19.86895706  *  19.43941121  *  22.35395454  *
     3       C         20.67909823  *  20.65060087  *  22.40031315  *
     4       C         19.93878421  *  21.96068449  *  22.40146656  *
     5       C         18.49616039  *  21.97049140  *  22.48416686  *
     6       C         17.78190379  *  20.77859040  *  22.38798348  *
     7       C         22.08896448  *  20.63998208  *  22.45678261  *
     8       C         20.74352552  *  23.14127763  *  22.41858568  *
     9       C         22.18661093  *  23.09577602  *  22.47874851  *
    10       C         22.89548466  *  21.81701427  *  22.49768838  *
    11       C         24.33232559  *  21.82378846  *  22.61531886  *
    12       H         24.89021555  *  20.91575554  *  22.43277239  *
    13       C         22.93949782  *  24.30121269  *  22.57311491  *
    14       H         22.56256119  *  19.67150199  *  22.57413437  *
    15       H         17.77577898  *  18.67080217  *  22.10923943  *
    16       H         20.39776882  *  18.47644945  *  22.23060247  *
    17       H         17.95752678  *  22.93934934  *  22.61003715  *
    18       H         16.67811860  *  20.74308383  *  22.33327212  *
    19       H         20.29728581  *  24.20072147  *  22.37467912  *
    20       H         22.37967655  *  25.22389983  *  22.59456318  *
    21       C         26.52083585  *  23.06387235  *  22.65142578  *
    22       C         27.15951546  *  24.27720451  *  22.48610979  *
    23       C         26.44702794  *  25.53253133  *  22.52048975  *
    24       C         25.05278318  *  25.58750359  *  22.68274907  *
    25       H         27.07285170  *  22.11014438  *  22.70533697  *
    26       H         28.26575324  *  24.34950881  *  22.40051527  *
    27       H         27.06383605  *  26.49396114  *  22.48863203  *
    28       H         24.55854776  *  26.53843952  *  22.81762673  *
    29       C         25.06534475  *  23.04085959  *  22.68012868  *
    30       C         24.33693504  *  24.32900402  *  22.67740848  *
 


          CARTESIAN COORDINATES 

    NO.       ATOM           X           Y           Z

     1         C         18.4747     19.5222     22.2612
     2         C         19.8690     19.4394     22.3540
     3         C         20.6791     20.6506     22.4003
     4         C         19.9388     21.9607     22.4015
     5         C         18.4962     21.9705     22.4842
     6         C         17.7819     20.7786     22.3880
     7         C         22.0890     20.6400     22.4568
     8         C         20.7435     23.1413     22.4186
     9         C         22.1866     23.0958     22.4787
    10         C         22.8955     21.8170     22.4977
    11         C         24.3323     21.8238     22.6153
    12         H         24.8902     20.9158     22.4328
    13         C         22.9395     24.3012     22.5731
    14         H         22.5626     19.6715     22.5741
    15         H         17.7758     18.6708     22.1092
    16         H         20.3978     18.4764     22.2306
    17         H         17.9575     22.9393     22.6100
    18         H         16.6781     20.7431     22.3333
    19         H         20.2973     24.2007     22.3747
    20         H         22.3797     25.2239     22.5946
    21         C         26.5208     23.0639     22.6514
    22         C         27.1595     24.2772     22.4861
    23         C         26.4470     25.5325     22.5205
    24         C         25.0528     25.5875     22.6827
    25         H         27.0729     22.1101     22.7053
    26         H         28.2658     24.3495     22.4005
    27         H         27.0638     26.4940     22.4886
    28         H         24.5585     26.5384     22.8176
    29         C         25.0653     23.0409     22.6801
    30         C         24.3369     24.3290     22.6774

           Empirical Formula: C18 H12  =    30 atoms



      MOLECULAR POINT GROUP   :   C1  


      RHF CALCULATION, NO. OF DOUBLY OCCUPIED LEVELS = 42

 WARNING: INDO only performs single-point calculations
  SCF CRITERION =    0.1000E-09

 Summary of symmetry occupancy in each shell:

 SHELL     
    1   42
    v   42
 TOTAL  84




    ROOT NO.    1           2           3           4           5           6

           -44.43043   -42.78772   -40.31122   -36.80596   -35.59755   -34.02597
  
  
  S  C   1   0.10292     0.23416    -0.26310    -0.24150     0.07440     0.12897
 PX  C   1   0.02643     0.05147    -0.03872     0.00457     0.03517     0.08937
 PY  C   1   0.03691     0.08064    -0.08335    -0.06631    -0.01070    -0.04503
 PZ  C   1   0.00477     0.01052    -0.01103    -0.00856     0.00109     0.00043
  
  S  C   2   0.12922     0.25202    -0.20897    -0.07716     0.14987     0.30892
 PX  C   2  -0.00169    -0.02770     0.07027     0.11381     0.02269     0.04303
 PY  C   2   0.05200     0.09352    -0.06203     0.00020     0.01268     0.01947
 PZ  C   2  -0.00027    -0.00180     0.00380     0.00507    -0.00246    -0.00654
  
  S  C   3   0.23425     0.32090    -0.06591     0.20702     0.11913     0.22558
 PX  C   3   0.00815    -0.05298     0.13554     0.14293     0.05130     0.05668
 PY  C   3   0.04750     0.03045     0.05665     0.08383    -0.08811    -0.15226
 PZ  C   3   0.00217     0.00019     0.00513     0.00668     0.00032    -0.00228
  
  S  C   4   0.22796     0.31696    -0.07946     0.14581    -0.16765    -0.23907
 PX  C   4   0.04421    -0.00321     0.12348     0.16296     0.00435     0.07079
 PY  C   4  -0.02348    -0.06577     0.07824     0.04041    -0.09576    -0.12818
 PZ  C   4   0.00339     0.00378     0.00040     0.00278    -0.00437    -0.00757
  
  S  C   5   0.12668     0.25106    -0.21994    -0.13659    -0.12673    -0.29290
 PX  C   5   0.04020     0.05940    -0.01284     0.05263    -0.03785    -0.03998
 PY  C   5  -0.03192    -0.07767     0.09371     0.08863    -0.02813    -0.02456
 PZ  C   5  -0.00414    -0.00925     0.00967     0.00740     0.00110     0.00374
  
  S  C   6   0.10248     0.23451    -0.26719    -0.26259    -0.01945    -0.11560
 PX  C   6   0.04542     0.09628    -0.09261    -0.05709    -0.00104    -0.00868
 PY  C   6   0.00201     0.00033     0.00844     0.02118    -0.04234    -0.09878
 PZ  C   6  -0.00057    -0.00176     0.00288     0.00417    -0.00272    -0.00584
  
  S  C   7   0.22135     0.16989     0.14995     0.27800     0.24007     0.22271
 PX  C   7  -0.02279    -0.07196     0.03985    -0.07954     0.03733    -0.06440
 PY  C   7   0.07399     0.02711     0.08427     0.05948    -0.00662    -0.05559
 PZ  C   7   0.00172    -0.00129     0.00377    -0.00074     0.00478    -0.00027
  
  S  C   8   0.21491     0.15823     0.14362     0.18973    -0.29786    -0.24261
 PX  C   8   0.05198    -0.01578     0.09488     0.00729    -0.02679     0.05954
 PY  C   8  -0.05882    -0.07696    -0.01086    -0.10461    -0.00935     0.03938
 PZ  C   8   0.00344     0.00042     0.00375    -0.00046    -0.00338    -0.00044
  
  S  C   9   0.33030     0.03994     0.30451    -0.01748    -0.21071    -0.05702
 PX  C   9   0.04044    -0.08032     0.02715    -0.17782     0.08844     0.07546
 PY  C   9  -0.03864    -0.05385    -0.03809    -0.12040    -0.12946     0.01349
 PZ  C   9   0.00545    -0.00458     0.00429    -0.01294    -0.00068     0.00395
  
  S  C  10   0.32329     0.04262     0.29864     0.03172     0.21879     0.02253
 PX  C  10  -0.01882    -0.08712    -0.02573    -0.18256     0.09879    -0.03656
 PY  C  10   0.05830    -0.04062     0.04613    -0.11710    -0.10277    -0.05434
 PZ  C  10   0.00340    -0.00427     0.00278    -0.01130     0.00552    -0.00091
  
  S  C  11   0.24835    -0.10512     0.14535    -0.19265     0.35637    -0.13179
 PX  C  11  -0.04564    -0.02899    -0.09255     0.00617     0.00305    -0.07525
 PY  C  11   0.07764    -0.06061     0.01410    -0.09940     0.00932    -0.03750
 PZ  C  11  -0.00676     0.00059    -0.00684     0.00174    -0.01208     0.00108
  
  S  H  12   0.07714    -0.03310     0.04026    -0.04751     0.17560    -0.06961
  
  S  C  13   0.26558    -0.11224     0.15741    -0.25692    -0.30267     0.13998
 PX  C  13   0.04157    -0.07032    -0.04217    -0.07800     0.02621     0.09046
 PY  C  13  -0.07931     0.00531    -0.08841     0.05721    -0.02168     0.05400
 PZ  C  13   0.00048    -0.00325    -0.00327    -0.00491    -0.00002     0.00768
  
  S  H  14   0.06952     0.05428     0.04279     0.08854     0.13275     0.12249
  
  S  H  15   0.02606     0.06318    -0.07955    -0.08965     0.02829     0.05071
  
  S  H  16   0.03918     0.07316    -0.05503    -0.00805     0.07447     0.15337
  
  S  H  17   0.03661     0.07033    -0.05897    -0.03771    -0.06550    -0.14228
  
  S  H  18   0.02611     0.06355    -0.08088    -0.09673    -0.00793    -0.04925
  
  S  H  19   0.06378     0.04061     0.04312     0.03512    -0.14285    -0.10540
  
  S  H  20   0.08501    -0.03360     0.04901    -0.07790    -0.17027     0.06758
  
  S  C  21   0.17597    -0.21853    -0.21741     0.13201     0.20387    -0.26813
 PX  C  21  -0.05648     0.05324     0.01601     0.04808    -0.05142     0.02251
 PY  C  21   0.04355    -0.06721    -0.09408     0.09217    -0.03785     0.01014
 PZ  C  21  -0.00430     0.00570     0.00694    -0.00728    -0.00270     0.00563
  
  S  C  22   0.14508    -0.20674    -0.26550     0.25714     0.04797    -0.13223
 PX  C  22  -0.06382     0.08425     0.09157    -0.05645    -0.00148     0.00577
 PY  C  22  -0.00615     0.00468    -0.00365     0.01844    -0.06816     0.08953
 PZ  C  22   0.00744    -0.01049    -0.01278     0.01009     0.00291    -0.00621
  
  S  C  23   0.14327    -0.20360    -0.25974     0.24010    -0.10736     0.09880
 PX  C  23  -0.03727     0.04592     0.04128    -0.00277     0.05936    -0.08669
 PY  C  23  -0.05292     0.07203     0.08394    -0.06543    -0.01938     0.04457
 PZ  C  23   0.00542    -0.00756    -0.00899     0.00607    -0.00578     0.00748
  
  S  C  24   0.17762    -0.21787    -0.21006     0.09265    -0.22954     0.26957
 PX  C  24   0.00711    -0.02939    -0.07250     0.10913     0.03153    -0.03587
 PY  C  24  -0.07175     0.08037     0.06003     0.00093     0.02316    -0.02187
 PZ  C  24  -0.00500     0.00649     0.00733    -0.00615     0.00300    -0.00271
  
  S  H  25   0.05168    -0.06204    -0.05822     0.03406     0.10453    -0.12904
  
  S  H  26   0.03652    -0.05536    -0.07939     0.09344     0.01960    -0.05692
  
  S  H  27   0.03433    -0.05185    -0.07378     0.08265    -0.04166     0.04119
  
  S  H  28   0.05328    -0.06336    -0.05776     0.01881    -0.11142     0.13161
  
  S  C  29   0.30050    -0.26039    -0.07054    -0.14726     0.23312    -0.17192
 PX  C  29  -0.04793    -0.01455    -0.12590     0.15834     0.02959    -0.08710
 PY  C  29   0.03424    -0.06036    -0.08396     0.05130    -0.13397     0.09618
 PZ  C  29  -0.00917     0.00666    -0.00035     0.00450    -0.00847     0.00568
  
  S  C  30   0.30744    -0.26566    -0.06893    -0.18116    -0.17589     0.20086
 PX  C  30  -0.00014    -0.05615    -0.13860     0.14233     0.07206    -0.04647
 PY  C  30  -0.05566     0.01568    -0.06518     0.09305    -0.12676     0.12059
 PZ  C  30  -0.00895     0.00605    -0.00165     0.00688     0.00479    -0.00359




    ROOT NO.    7           8           9          10          11          12

           -31.72330   -31.35082   -28.62810   -28.32557   -26.87726   -25.83918
  
  
  S  C   1   0.16475     0.26808    -0.17939    -0.24801    -0.04589     0.20171
 PX  C   1   0.10674    -0.10172    -0.11755     0.16762     0.02014     0.06701
 PY  C   1  -0.06608     0.02829     0.08865     0.00894    -0.04009    -0.10693
 PZ  C   1  -0.00049     0.00266     0.00216     0.00439    -0.00296    -0.00586
  
  S  C   2   0.29151    -0.05577    -0.18455     0.13022     0.09410     0.04260
 PX  C   2  -0.02221    -0.13473     0.13091     0.10496     0.07887    -0.19467
 PY  C   2  -0.00634    -0.07386     0.04574     0.08167    -0.06159    -0.09484
 PZ  C   2  -0.01101    -0.00603     0.01492     0.00426    -0.00276    -0.01507
  
  S  C   3   0.09186    -0.24286     0.08896     0.10540    -0.06501    -0.18846
 PX  C   3  -0.05926     0.04572     0.16114    -0.14069     0.06861    -0.07812
 PY  C   3  -0.09864    -0.00643    -0.02381    -0.10166    -0.17762     0.09416
 PZ  C   3  -0.00819     0.00003     0.01024    -0.00397     0.00060    -0.00239
  
  S  C   4  -0.09291    -0.26613    -0.12896     0.09098    -0.10426     0.18258
 PX  C   4   0.10530     0.01274    -0.05930    -0.17516    -0.10303    -0.04275
 PY  C   4  -0.01706     0.02206    -0.08777    -0.08540     0.12464     0.12351
 PZ  C   4  -0.00591    -0.00478     0.00147     0.00469     0.00194     0.00400
  
  S  C   5  -0.28346    -0.06164     0.17393     0.17425     0.11421    -0.04258
 PX  C   5   0.02159    -0.14564    -0.14401     0.09987    -0.05402     0.19360
 PY  C   5   0.01123    -0.07738    -0.06615     0.02601     0.06936     0.10588
 PZ  C   5   0.00337    -0.00252    -0.00115     0.00028     0.00458     0.00046
  
  S  C   6  -0.15960     0.27150     0.21797    -0.20160     0.00966    -0.19672
 PX  C   6   0.00084    -0.03073    -0.03956     0.09107    -0.03545     0.05847
 PY  C   6  -0.12528    -0.09634     0.13048     0.16506     0.07313    -0.12389
 PZ  C   6  -0.00787    -0.01147     0.00851     0.01855     0.00614    -0.00949
  
  S  C   7  -0.15070     0.02476     0.27235    -0.09527     0.15079    -0.00665
 PX  C   7  -0.12030     0.14447    -0.04143    -0.00595     0.08612     0.21458
 PY  C   7  -0.06748     0.09073    -0.03475    -0.08835    -0.15970     0.09849
 PZ  C   7  -0.00917     0.00672     0.00392     0.00035     0.00813     0.01021
  
  S  C   8   0.14523    -0.01167    -0.22260    -0.15674     0.15805     0.03770
 PX  C   8   0.12320     0.15705     0.04091    -0.07210    -0.01563    -0.19657
 PY  C   8   0.07299     0.07542     0.03237     0.04538     0.18772    -0.08938
 PZ  C   8   0.00311     0.00415     0.00261     0.00136     0.00079    -0.00518
  
  S  C   9   0.20693     0.24194    -0.02701     0.00296    -0.05365    -0.18478
 PX  C   9  -0.06674     0.01687     0.08591     0.19234    -0.13004     0.03399
 PY  C   9   0.14890    -0.03303     0.04719     0.09438     0.22705    -0.08713
 PZ  C   9   0.00101     0.00090     0.00710     0.01437    -0.00320     0.00016
  
  S  C  10  -0.22254     0.25219    -0.00424     0.02317    -0.09126     0.17434
 PX  C  10  -0.06283    -0.03025    -0.12083     0.16711     0.11583     0.07049
 PY  C  10   0.12150     0.02034    -0.08400     0.08776    -0.19973    -0.14021
 PZ  C  10  -0.00470     0.00032    -0.00506     0.01225     0.00092     0.00374
  
  S  C  11  -0.16471    -0.01274    -0.24949     0.09574     0.20645     0.02939
 PX  C  11   0.11059    -0.15074    -0.04311    -0.10801     0.10517    -0.16945
 PY  C  11   0.05931    -0.07764    -0.03380     0.02436    -0.16775    -0.14202
 PZ  C  11   0.01218    -0.01063     0.00613    -0.00663    -0.01509    -0.01702
  
  S  H  12  -0.07615    -0.01274    -0.11665     0.00339     0.23279     0.03842
  
  S  C  13   0.17797     0.00091     0.21870     0.13862     0.16206     0.04557
 PX  C  13  -0.12540    -0.14370     0.06569    -0.00706    -0.16387     0.17659
 PY  C  13  -0.06078    -0.08542     0.05113    -0.09058     0.14894     0.14979
 PZ  C  13  -0.00882    -0.01268     0.00791    -0.00217    -0.00448     0.01822
  
  S  H  14  -0.06819     0.00199     0.13863    -0.00204     0.19450     0.00238
  
  S  H  15   0.07138     0.15297    -0.08555    -0.18820    -0.01249     0.12593
  
  S  H  16   0.13740    -0.02677    -0.07451     0.05260     0.10784     0.01570
  
  S  H  17  -0.13493    -0.02846     0.08954     0.07070     0.11323    -0.02146
  
  S  H  18  -0.07583     0.15116     0.12818    -0.15647     0.02386    -0.13234
  
  S  H  19   0.07995    -0.00178    -0.09132    -0.03302     0.19478     0.01591
  
  S  H  20   0.09463     0.00046     0.10913     0.02404     0.22248     0.04730
  
  S  C  21   0.27073    -0.04465     0.18399    -0.13241     0.11927     0.07244
 PX  C  21   0.03053     0.13292     0.11071     0.14491     0.01874     0.19613
 PY  C  21   0.02232     0.08183     0.07605     0.06084    -0.13096     0.07369
 PZ  C  21  -0.00792    -0.00965    -0.01078    -0.01117     0.00288    -0.01518
  
  S  C  22   0.16935     0.25868     0.16236     0.26961    -0.04981     0.17943
 PX  C  22   0.00757     0.02374     0.02294     0.09519     0.04112     0.07906
 PY  C  22  -0.12258     0.08574    -0.15510     0.13561    -0.04556    -0.13156
 PZ  C  22   0.00773     0.00056     0.00851    -0.00954    -0.00135     0.00323
  
  S  C  23  -0.15799     0.25572    -0.23813     0.22019     0.01937    -0.19895
 PX  C  23   0.11049     0.08200     0.08425     0.18172    -0.04639     0.05751
 PY  C  23  -0.06658    -0.02738    -0.09642    -0.01530     0.09579    -0.08046
 PZ  C  23  -0.01095    -0.00200    -0.01098    -0.01392     0.00507    -0.00852
  
  S  C  24  -0.27924    -0.03433    -0.16001    -0.15423     0.14698     0.00191
 PX  C  24  -0.03175     0.12663    -0.15503     0.07846    -0.03820    -0.20775
 PY  C  24  -0.00980     0.07245    -0.08847     0.07328     0.11736    -0.07495
 PZ  C  24   0.00434    -0.00755     0.00812    -0.00749     0.00458     0.01171
  
  S  H  25   0.12729    -0.02468     0.08131    -0.05507     0.14000     0.05812
  
  S  H  26   0.08144     0.14098     0.08709     0.19311    -0.00277     0.13256
  
  S  H  27  -0.07264     0.13241    -0.13491     0.15513     0.04171    -0.12007
  
  S  H  28  -0.13297    -0.01457    -0.08148    -0.06234     0.15305     0.02090
  
  S  C  29   0.06455    -0.24799    -0.09161    -0.14180    -0.07760    -0.20243
 PX  C  29   0.10507    -0.00449     0.06892    -0.15962     0.13044    -0.01710
 PY  C  29   0.00264    -0.01865     0.13399    -0.05852    -0.20999     0.06050
 PZ  C  29  -0.00063    -0.00093     0.00405    -0.00599    -0.00241    -0.00043
  
  S  C  30  -0.07811    -0.23441     0.13709    -0.10207    -0.14796     0.14775
 PX  C  30  -0.06091    -0.02041    -0.11597    -0.15831    -0.07274    -0.10596
 PY  C  30  -0.09048     0.01485     0.02242    -0.09118     0.18739     0.14875
 PZ  C  30  -0.00222    -0.00136    -0.00476    -0.00928     0.00251    -0.00137




    ROOT NO.   13          14          15          16          17          18

           -25.05986   -24.25837   -22.72382   -21.42725   -20.68132   -19.36219
  
  
  S  C   1   0.02901    -0.10661     0.00396     0.18114    -0.00981     0.00604
 PX  C   1   0.03800     0.24366    -0.01778    -0.03273     0.22064     0.15757
 PY  C   1  -0.15578     0.00074    -0.18684    -0.09321    -0.11556     0.19017
 PZ  C   1  -0.01263     0.01145    -0.02036    -0.01074     0.00162     0.03642
  
  S  C   2   0.17722     0.17959     0.12096    -0.13161     0.10933     0.00294
 PX  C   2   0.05050    -0.05319     0.07422    -0.16948    -0.16349    -0.13752
 PY  C   2  -0.19679    -0.00619    -0.20272    -0.04982    -0.14834     0.08588
 PZ  C   2  -0.01604    -0.00754    -0.01815    -0.00336    -0.02199     0.01124
  
  S  C   3  -0.15991    -0.11192    -0.01190    -0.09536    -0.07907    -0.14002
 PX  C   3   0.13860    -0.14588     0.15535     0.10607     0.01312    -0.00963
 PY  C   3  -0.19333    -0.07922    -0.03144     0.10210     0.13979    -0.08436
 PZ  C   3   0.00011    -0.00705    -0.00204     0.01488    -0.00568     0.00636
  
  S  C   4  -0.09056    -0.10852    -0.01549     0.10221    -0.07632    -0.14031
 PX  C   4  -0.09756    -0.15653     0.06799    -0.18878     0.08772    -0.06554
 PY  C   4   0.26656    -0.08370     0.15618    -0.00153    -0.07509     0.03742
 PZ  C   4   0.00578     0.00336     0.00493     0.01518     0.00099    -0.00499
  
  S  C   5   0.16279     0.17581     0.10829     0.09697     0.12224    -0.01085
 PX  C   5  -0.06810    -0.02668    -0.13005     0.20195    -0.18699    -0.01284
 PY  C   5   0.18407    -0.03582     0.17407     0.09917    -0.02221    -0.18305
 PZ  C   5   0.01297     0.00223     0.01792     0.00284     0.01291    -0.01491
  
  S  C   6  -0.03642    -0.11448     0.00700    -0.17315    -0.04501     0.02553
 PX  C   6  -0.09079     0.13332    -0.17352     0.12791     0.03569     0.23638
 PY  C   6   0.07753     0.19512     0.08531    -0.09902     0.22794     0.03213
 PZ  C   6   0.00645     0.02461     0.00567    -0.00786     0.02942     0.01245
  
  S  C   7   0.12818    -0.09540    -0.06284     0.21856    -0.02424     0.14591
 PX  C   7   0.06331     0.14435    -0.17479     0.07687     0.02888     0.14926
 PY  C   7  -0.12041     0.10532     0.02936    -0.00832     0.23469    -0.04187
 PZ  C   7   0.00744     0.00330    -0.01361     0.01371    -0.01075     0.01901
  
  S  C   8   0.16881    -0.11119    -0.04366    -0.19675    -0.08048     0.18691
 PX  C   8  -0.10442     0.15371    -0.07713    -0.08254     0.17681     0.06725
 PY  C   8   0.08788     0.06633    -0.15880    -0.02863    -0.10453     0.15412
 PZ  C   8  -0.00141     0.00716     0.00007     0.00814     0.00573    -0.00411
  
  S  C   9  -0.02123     0.22424     0.02862    -0.00424    -0.00323    -0.00959
 PX  C   9  -0.01702     0.04746     0.11499     0.18094    -0.15692    -0.16296
 PY  C   9   0.02359    -0.08939    -0.19505     0.09525    -0.11321    -0.06442
 PZ  C   9  -0.00011    -0.00113     0.00433     0.01881    -0.01348    -0.00744
  
  S  C  10   0.00434     0.22714     0.00343    -0.00947     0.00079    -0.01903
 PX  C  10   0.02437    -0.06620    -0.10469    -0.16340    -0.22397    -0.12128
 PY  C  10  -0.03869     0.07815     0.21542    -0.08088    -0.09982    -0.08209
 PZ  C  10   0.00473    -0.00372    -0.00220    -0.00325    -0.02339     0.00420
  
  S  C  11  -0.09897    -0.12229    -0.07231    -0.21358     0.02247    -0.12984
 PX  C  11  -0.09031    -0.14406     0.05218     0.05710     0.22320     0.05847
 PY  C  11   0.04289    -0.06001     0.17385     0.07784    -0.06947     0.16040
 PZ  C  11   0.00554    -0.00804     0.01894     0.02056    -0.00056     0.03768
  
  S  H  12  -0.10675    -0.07655    -0.11535    -0.13045     0.12874    -0.14712
  
  S  C  13  -0.10885    -0.10112    -0.06359     0.19045     0.07212    -0.16939
 PX  C  13   0.01486    -0.13269     0.17505    -0.06882     0.03949     0.15453
 PY  C  13  -0.08524    -0.09258    -0.05719    -0.04665     0.21815    -0.02875
 PZ  C  13  -0.00394    -0.01604     0.01311    -0.00284     0.01214     0.01910
  
  S  H  14   0.15660    -0.06796    -0.09833     0.13359    -0.14698     0.14972
  
  S  H  15   0.07429    -0.15490     0.10704     0.15710    -0.04251    -0.18751
  
  S  H  16   0.21821     0.07817     0.20134    -0.08772     0.09060    -0.09608
  
  S  H  17   0.20737     0.07694     0.19641     0.03839     0.11084    -0.11394
  
  S  H  18   0.03541    -0.14935     0.11692    -0.17577    -0.05655    -0.16692
  
  S  H  19   0.15754    -0.05724    -0.10092    -0.08669    -0.14698     0.16909
  
  S  H  20  -0.10594    -0.06038    -0.12494     0.08829     0.14531    -0.15493
  
  S  C  21  -0.15343     0.18620     0.11789     0.12184    -0.09874    -0.02132
 PX  C  21  -0.09897     0.01289     0.14546    -0.13858    -0.20407     0.02938
 PY  C  21   0.15157     0.02779    -0.15437    -0.12151    -0.07713    -0.14189
 PZ  C  21  -0.00061     0.00061     0.00275     0.02062     0.01191     0.01700
  
  S  C  22   0.00438    -0.12956     0.00398    -0.16516     0.01472     0.01085
 PX  C  22  -0.10224    -0.12567     0.16947    -0.08901     0.01587     0.25567
 PY  C  22   0.08607    -0.20652    -0.09928     0.04059     0.25385     0.01943
 PZ  C  22   0.00258     0.02314    -0.00580     0.00643    -0.02258    -0.02063
  
  S  C  23  -0.00036    -0.12663    -0.00230     0.17388     0.06735    -0.03093
 PX  C  23   0.02359    -0.23373     0.00084     0.00528     0.22357     0.13203
 PY  C  23  -0.13440     0.00242     0.19207     0.15112    -0.08007     0.17591
 PZ  C  23  -0.00346     0.02510     0.00285     0.00221    -0.02995    -0.00946
  
  S  C  24  -0.15242     0.17265     0.11951    -0.09975    -0.12817     0.01659
 PX  C  24   0.07181     0.03977    -0.06255     0.17138    -0.11850    -0.13881
 PY  C  24  -0.16733     0.00513     0.20644     0.11704    -0.13248     0.10039
 PZ  C  24  -0.00917     0.00360     0.01424    -0.01472    -0.00380     0.02870
  
  S  H  25  -0.19408     0.08262     0.19428     0.08297    -0.07276     0.08418
  
  S  H  26  -0.05712    -0.15600     0.11029    -0.14483     0.03314     0.20055
  
  S  H  27  -0.06161    -0.14273     0.10608     0.17798     0.07376     0.15035
  
  S  H  28  -0.19488     0.08118     0.20056    -0.03356    -0.10921     0.11870
  
  S  C  29   0.10027    -0.08982    -0.01038     0.10177     0.08061     0.15033
 PX  C  29  -0.07012     0.15937    -0.07689     0.14054     0.11787    -0.12218
 PY  C  29   0.21589     0.09022    -0.13010     0.01323    -0.09126     0.03055
 PZ  C  29   0.00268     0.00187     0.00307     0.00824     0.00201     0.02612
  
  S  C  30   0.11471    -0.09376    -0.01406    -0.10024     0.06381     0.14114
 PX  C  30   0.14893     0.15014    -0.15405    -0.10277    -0.04665    -0.00217
 PY  C  30  -0.15991     0.08367    -0.00344    -0.14745     0.11698    -0.10466
 PZ  C  30  -0.00027     0.00477     0.00243    -0.00767     0.00038     0.02548




    ROOT NO.   19          20          21          22          23          24

           -18.34558   -17.26869   -16.94314   -16.64869   -15.93186   -15.39384
  
  
  S  C   1  -0.16256     0.02318    -0.04888     0.11091     0.05865    -0.04288
 PX  C   1   0.08205     0.19447    -0.00125    -0.00438     0.16520    -0.09894
 PY  C   1   0.12611    -0.17837     0.03683    -0.04876     0.17822    -0.04850
 PZ  C   1   0.01911    -0.00652     0.00326    -0.00412     0.04757    -0.02949
  
  S  C   2   0.15115    -0.01754     0.04779    -0.04960    -0.00821    -0.02074
 PX  C   2   0.09397    -0.23404     0.04975    -0.06646    -0.18305     0.09408
 PY  C   2  -0.03174    -0.10230    -0.00731     0.30163    -0.02855    -0.23546
 PZ  C   2  -0.00564    -0.01927    -0.00133     0.02026     0.00473    -0.02973
  
  S  C   3  -0.05328     0.04305     0.00230     0.22473    -0.06688    -0.01735
 PX  C   3  -0.17349     0.00837    -0.04300     0.02436     0.25388     0.12666
 PY  C   3  -0.03770     0.28170    -0.02210    -0.10689    -0.04240     0.09684
 PZ  C   3  -0.01972     0.00020    -0.00367    -0.00314     0.00055    -0.00722
  
  S  C   4   0.05887     0.02364     0.01841    -0.21383    -0.08855     0.03392
 PX  C   4   0.14559     0.24211    -0.01443     0.04006     0.09277    -0.12341
 PY  C   4   0.09273    -0.15125     0.01152    -0.08374     0.22290    -0.07232
 PZ  C   4  -0.02189    -0.00833    -0.00212     0.00243    -0.01992    -0.01288
  
  S  C   5  -0.16293    -0.00085    -0.04608     0.05519    -0.01809     0.02032
 PX  C   5  -0.03729    -0.23357     0.04489    -0.17800    -0.12239     0.12222
 PY  C   5  -0.11088    -0.06709     0.00670     0.24672    -0.14070    -0.20605
 PZ  C   5  -0.02075     0.01211    -0.00625     0.04578    -0.01369    -0.04575
  
  S  C   6   0.16559    -0.01493     0.03771    -0.11730     0.06592     0.03643
 PX  C   6  -0.16470    -0.04389    -0.07958     0.02362     0.23350     0.07987
 PY  C   6   0.02416     0.23615    -0.03345    -0.05423     0.03554     0.08242
 PZ  C   6  -0.00393     0.03057    -0.00773     0.00834     0.01885    -0.01457
  
  S  C   7  -0.07953     0.05018    -0.00889    -0.05076     0.06856     0.01947
 PX  C   7   0.17391     0.01439     0.03988    -0.16769    -0.19747    -0.10138
 PY  C   7   0.09605     0.04943     0.12788     0.20551    -0.05162     0.11578
 PZ  C   7   0.00096     0.00469     0.00289    -0.02399    -0.02017    -0.01054
  
  S  C   8   0.10382     0.01996    -0.02168     0.05685     0.08853    -0.02790
 PX  C   8  -0.17365     0.04754    -0.11893    -0.07203    -0.19515    -0.02426
 PY  C   8  -0.05649    -0.02355     0.05553     0.28126    -0.06659     0.13812
 PZ  C   8  -0.01750     0.00008     0.00009    -0.00839    -0.02731    -0.00658
  
  S  C   9  -0.14525    -0.13746    -0.12176    -0.12535    -0.07901    -0.09344
 PX  C   9   0.03666    -0.10563     0.06150    -0.00650     0.11113     0.00135
 PY  C   9  -0.05241     0.22069    -0.06459    -0.08118    -0.13327    -0.02612
 PZ  C   9  -0.00147     0.00929     0.01745    -0.00747    -0.02121     0.00681
  
  S  C  10   0.13558    -0.11149     0.14912     0.13202    -0.04318     0.07145
 PX  C  10   0.04970     0.12949    -0.00191     0.06611    -0.04234     0.02271
 PY  C  10  -0.09981    -0.22114    -0.05034    -0.02412     0.15034    -0.03024
 PZ  C  10   0.00158     0.01691     0.02036     0.00090    -0.02306     0.02257
  
  S  C  11  -0.10063     0.05209    -0.05462     0.00876     0.06982     0.01709
 PX  C  11  -0.17671    -0.06813    -0.10738    -0.13482     0.10062    -0.05453
 PY  C  11  -0.06322     0.00807     0.24405     0.03846     0.11737     0.23956
 PZ  C  11  -0.00706     0.00708     0.04395     0.00130    -0.01841     0.05417
  
  S  H  12  -0.07532    -0.00904    -0.26639    -0.08508     0.00036    -0.19871
  
  S  C  13   0.09414     0.06073     0.03757    -0.03287     0.07908    -0.00872
 PX  C  13   0.14053    -0.05967    -0.17040     0.03135     0.14145    -0.17809
 PY  C  13   0.09781    -0.02372     0.22488     0.12682     0.07504     0.17083
 PZ  C  13   0.01377     0.00467     0.01985     0.00717    -0.01597     0.00131
  
  S  H  14  -0.04444    -0.00526    -0.09156    -0.25991    -0.00050    -0.12036
  
  S  H  15  -0.19964     0.02704    -0.04726     0.09325    -0.18985     0.06395
  
  S  H  16   0.13279    -0.02797     0.04593    -0.28725    -0.05602     0.21059
  
  S  H  17  -0.14433     0.04306    -0.03466     0.29640    -0.06203    -0.20384
  
  S  H  18   0.21366     0.02092     0.08681    -0.07912    -0.17313    -0.05120
  
  S  H  19   0.06475    -0.01247     0.08533     0.28498     0.06454     0.11567
  
  S  H  20   0.05544     0.04501     0.26862     0.07259     0.03997     0.20534
  
  S  C  21   0.16237    -0.01809    -0.04152     0.05312     0.00782    -0.03925
 PX  C  21  -0.01202     0.17566    -0.24138     0.04762     0.08208     0.15651
 PY  C  21  -0.12116     0.16636     0.22644    -0.07234     0.15116    -0.21031
 PZ  C  21   0.02270    -0.02015    -0.00645     0.01358    -0.05075     0.03338
  
  S  C  22  -0.16560     0.01702     0.10396    -0.06055     0.05379    -0.02956
 PX  C  22  -0.13851     0.03147     0.00039    -0.03355    -0.24769     0.14362
 PY  C  22   0.00005    -0.25294    -0.00660     0.00399    -0.05065     0.06138
 PZ  C  22   0.01824     0.01963     0.00063     0.00804     0.00787    -0.00648
  
  S  C  23   0.17256    -0.01893    -0.11192     0.05720     0.05398     0.03028
 PX  C  23   0.06541    -0.18010     0.08673     0.03647    -0.13223    -0.17606
 PY  C  23   0.16445     0.14822    -0.05330     0.05972    -0.16621    -0.04788
 PZ  C  23  -0.00892     0.03015     0.01009    -0.00650    -0.00591     0.00911
  
  S  C  24  -0.16004    -0.00682     0.04042    -0.05103    -0.00763     0.03607
 PX  C  24   0.11438     0.18893    -0.15078     0.01247     0.14125     0.15721
 PY  C  24  -0.02354     0.16825     0.29163    -0.07879     0.03885    -0.23332
 PZ  C  24  -0.02847    -0.00054     0.06099    -0.01292    -0.05281    -0.03824
  
  S  H  25   0.15894    -0.05774    -0.29642     0.09755    -0.07301     0.20516
  
  S  H  26  -0.19352     0.02030     0.05315    -0.05929    -0.19328     0.11264
  
  S  H  27   0.22358     0.01260    -0.05411     0.08832    -0.15944    -0.10424
  
  S  H  28  -0.14289     0.04682     0.30707    -0.08894    -0.03500    -0.22395
  
  S  C  29  -0.04610     0.04823     0.21846    -0.02459    -0.08292     0.02352
 PX  C  29   0.11499    -0.20862     0.10365    -0.00936    -0.05002    -0.18189
 PY  C  29   0.11766     0.14050    -0.07652     0.02543    -0.21634    -0.10405
 PZ  C  29   0.00681     0.00423     0.01932     0.00718    -0.06092     0.03430
  
  S  C  30   0.05250    -0.00546    -0.20722     0.03851    -0.10722    -0.01318
 PX  C  30  -0.15359     0.01503     0.03312     0.00238    -0.21679     0.17141
 PY  C  30  -0.07661    -0.28065    -0.07448     0.01863     0.05197     0.07384
 PZ  C  30  -0.01490     0.00562     0.03834     0.00054    -0.06652     0.01331




    ROOT NO.   25          26          27          28          29          30

           -15.04903   -14.78826   -14.67111   -14.33103   -13.81120   -13.42728
  
  
  S  C   1   0.02061     0.03206    -0.01088    -0.02818    -0.05191    -0.01215
 PX  C   1   0.22578    -0.12497     0.10908     0.04866    -0.08354     0.01978
 PY  C   1  -0.01378    -0.16856    -0.20100     0.00168    -0.16180    -0.07732
 PZ  C   1   0.06408    -0.01334    -0.09515     0.09772    -0.02345     0.23248
  
  S  C   2   0.02345    -0.09083    -0.04885     0.02390     0.01497     0.00380
 PX  C   2  -0.22153     0.05843    -0.12691    -0.04938     0.10721    -0.05176
 PY  C   2   0.15512    -0.08568    -0.04588    -0.10256     0.07467    -0.05628
 PZ  C   2   0.06302     0.02904    -0.10265     0.10506     0.02405     0.25095
  
  S  C   3  -0.01970     0.02867     0.05904     0.02658    -0.00950     0.00877
 PX  C   3  -0.13705     0.03822     0.00830     0.10179    -0.24507     0.02632
 PY  C   3   0.03113     0.07606     0.16738     0.06080    -0.00687     0.04734
 PZ  C   3   0.08775     0.07876    -0.13843     0.18486     0.04393     0.31015
  
  S  C   4   0.05067     0.00136     0.04398    -0.01397    -0.00547     0.00641
 PX  C   4   0.17610     0.06218     0.03554    -0.05993    -0.13416    -0.01366
 PY  C   4   0.03687    -0.06762    -0.14594    -0.04324    -0.20313    -0.04228
 PZ  C   4   0.07643     0.06257    -0.15763     0.18202     0.05276     0.30164
  
  S  C   5  -0.07015     0.05721    -0.04371    -0.02780     0.02221    -0.00772
 PX  C   5  -0.11169    -0.09244    -0.03594     0.07605     0.11652     0.04588
 PY  C   5   0.13459    -0.19949    -0.14101    -0.06108     0.02346    -0.07160
 PZ  C   5   0.07412     0.02284    -0.11136     0.10062     0.02551     0.24652
  
  S  C   6  -0.00533    -0.02468     0.00097     0.03757    -0.05471     0.01423
 PX  C   6  -0.18722     0.17708    -0.10501    -0.04923    -0.15349    -0.04435
 PY  C   6   0.00124     0.18198     0.22309     0.00304     0.03521     0.02464
 PZ  C   6   0.05048     0.03976    -0.05887     0.08805     0.00744     0.23912
  
  S  C   7   0.03712    -0.05728     0.04418     0.02316     0.01912    -0.01036
 PX  C   7   0.14181    -0.09302    -0.00463    -0.10389     0.24457    -0.05673
 PY  C   7  -0.20814    -0.22835    -0.02603     0.20066     0.03910    -0.03759
 PZ  C   7   0.11412     0.09229    -0.12493     0.16005     0.06023     0.16958
  
  S  C   8  -0.01318     0.06630     0.01334    -0.01410     0.02910    -0.00314
 PX  C   8  -0.05495     0.12207    -0.17260    -0.16343     0.19012    -0.03856
 PY  C   8  -0.15085    -0.02005     0.21907     0.18372     0.17356     0.06475
 PZ  C   8   0.07562     0.07178    -0.15000     0.17141     0.03930     0.15386
  
  S  C   9   0.01537     0.00606    -0.00516    -0.01870    -0.00270     0.00216
 PX  C   9   0.05638    -0.14091     0.21387     0.15795    -0.19213     0.04103
 PY  C   9   0.04128    -0.05033     0.12215     0.09427    -0.10446    -0.02503
 PZ  C   9   0.10820     0.10296    -0.15368     0.25481     0.01697     0.02604
  
  S  C  10  -0.01456    -0.00141     0.01342    -0.01153    -0.01513     0.01667
 PX  C  10   0.07647     0.27941     0.04964    -0.13663    -0.18348     0.03477
 PY  C  10   0.05036     0.13309     0.00938    -0.07727    -0.09144     0.06265
 PZ  C  10   0.12930     0.14383    -0.15387     0.21834     0.03192     0.03723
  
  S  C  11  -0.02749     0.05730    -0.06030     0.00612    -0.00141    -0.01090
 PX  C  11  -0.07770    -0.26506    -0.04311     0.10819     0.18855    -0.03681
 PY  C  11   0.20694     0.04814     0.01099    -0.16338     0.20266     0.00334
 PZ  C  11   0.11740     0.09562    -0.11670     0.16875     0.04570    -0.11996
  
  S  H  12  -0.20897    -0.13859    -0.03461     0.15217    -0.07531    -0.00990
  
  S  C  13   0.01408    -0.07001    -0.02259     0.01863    -0.01922    -0.01885
 PX  C  13  -0.12098     0.05315     0.04736     0.03273     0.26568    -0.00849
 PY  C  13  -0.01137     0.06687    -0.24388    -0.22434     0.05915     0.00860
 PZ  C  13   0.06242     0.10601    -0.13795     0.20031     0.02224    -0.12852
  
  S  H  14   0.23683     0.12426     0.02007    -0.17392     0.08333     0.01867
  
  S  H  15  -0.10536     0.20208     0.09098    -0.05701     0.15246     0.00940
  
  S  H  16  -0.20368     0.04802    -0.03420     0.05533    -0.00351    -0.00038
  
  S  H  17   0.12285    -0.08902    -0.12474    -0.08061    -0.01484    -0.05710
  
  S  H  18   0.16129    -0.17761     0.09666     0.06161     0.12187     0.03984
  
  S  H  19  -0.10907    -0.03528     0.24433     0.19499     0.08404     0.06319
  
  S  H  20   0.04937    -0.00323    -0.20774    -0.16773    -0.08385     0.00111
  
  S  C  21  -0.00917     0.10231     0.02710    -0.00817    -0.01093     0.00564
 PX  C  21   0.00090    -0.00639    -0.12394    -0.02318     0.15245    -0.08510
 PY  C  21  -0.20762     0.03516    -0.13031    -0.00741     0.08899     0.02335
 PZ  C  21   0.07537     0.07548    -0.04854     0.14181    -0.04939    -0.24046
  
  S  C  22  -0.00101    -0.03838     0.01023     0.01887     0.05815    -0.01065
 PX  C  22   0.05486    -0.21744    -0.04094    -0.01287    -0.21289     0.05609
 PY  C  22   0.19858     0.04144     0.19622     0.07545    -0.02835    -0.08904
 PZ  C  22   0.01768     0.07978    -0.06383     0.11318    -0.00353    -0.23121
  
  S  C  23   0.00380     0.03351    -0.02178    -0.01606     0.06423    -0.01297
 PX  C  23  -0.05336     0.25859     0.10387     0.01653    -0.07718    -0.01446
 PY  C  23  -0.19091     0.00069    -0.16933    -0.09378    -0.13742     0.12285
 PZ  C  23   0.02823     0.03218    -0.06298     0.12004    -0.02325    -0.22414
  
  S  C  24   0.06941    -0.04626     0.05866     0.02455    -0.02321     0.00314
 PX  C  24   0.02203    -0.20872    -0.14866     0.00602     0.10136    -0.05253
 PY  C  24  -0.12334     0.01128     0.03434     0.05478     0.07807    -0.05765
 PZ  C  24   0.02832     0.09572    -0.04377     0.15822    -0.05474    -0.23605
  
  S  H  25   0.15436     0.02161     0.05754     0.00504    -0.01275    -0.07069
  
  S  H  26   0.05439    -0.21999    -0.01786    -0.00709    -0.17998     0.06412
  
  S  H  27  -0.17109     0.14296    -0.09076    -0.07877    -0.12367     0.09563
  
  S  H  28  -0.06435     0.08396     0.10933     0.06755    -0.00518    -0.05086
  
  S  C  29   0.01156    -0.04739    -0.03762    -0.04266    -0.00864     0.00321
 PX  C  29  -0.01793     0.06747     0.13558     0.04329    -0.15980     0.08102
 PY  C  29  -0.15062    -0.00718    -0.04461     0.03531    -0.23435    -0.00052
 PZ  C  29   0.09313     0.10754    -0.11735     0.21298    -0.03367    -0.26657
  
  S  C  30  -0.06545     0.00736    -0.02496     0.02081    -0.00282    -0.00055
 PX  C  30   0.07286    -0.03388    -0.03814    -0.06686    -0.26377     0.04416
 PY  C  30   0.13205     0.08582     0.09891    -0.02780    -0.00321     0.07191
 PZ  C  30   0.07487     0.11816    -0.12358     0.22407    -0.05033    -0.26842




    ROOT NO.   31          32          33          34          35          36

           -13.12276   -12.89982   -12.21988   -11.84478   -11.60462   -11.52818
  
  
  S  C   1  -0.00641     0.00419     0.00407     0.01130    -0.00298    -0.01194
 PX  C   1   0.21344    -0.15070    -0.07437     0.09161     0.05482    -0.09028
 PY  C   1  -0.15420    -0.19804     0.20525    -0.01819    -0.09067    -0.11111
 PZ  C   1  -0.07421    -0.07376    -0.05110    -0.25654     0.16274     0.02924
  
  S  C   2  -0.01182    -0.01844    -0.01957     0.01124     0.02258     0.04609
 PX  C   2  -0.19811     0.15952     0.05310    -0.04884    -0.05649     0.12183
 PY  C   2   0.08479     0.16482    -0.17782     0.10029     0.06124     0.16387
 PZ  C   2  -0.06100    -0.00033    -0.08493    -0.17874     0.12436     0.05937
  
  S  C   3  -0.01029     0.02485     0.00543     0.00736     0.00849    -0.01005
 PX  C   3   0.07049    -0.18232    -0.07053     0.13626     0.14498    -0.09959
 PY  C   3  -0.02030    -0.13083     0.21808    -0.15361    -0.13948    -0.20658
 PZ  C   3  -0.04883     0.00737    -0.05836    -0.04356     0.01985     0.01220
  
  S  C   4   0.03054    -0.02475     0.00880    -0.01784    -0.01143     0.00829
 PX  C   4  -0.16649     0.15562     0.13848    -0.12446    -0.15970     0.10302
 PY  C   4  -0.00734     0.07730    -0.17586     0.14951     0.12108     0.22314
 PZ  C   4  -0.06713    -0.01190    -0.06070    -0.04740     0.03234     0.01509
  
  S  C   5  -0.02072     0.00261    -0.02282     0.02288     0.03815    -0.00861
 PX  C   5   0.16563    -0.18660    -0.12081     0.09024     0.14438    -0.10240
 PY  C   5  -0.06034    -0.18601     0.15508    -0.02760    -0.05940    -0.13078
 PZ  C   5  -0.10185    -0.02778    -0.03170    -0.21812     0.09895     0.03174
  
  S  C   6  -0.01087    -0.01737     0.00988    -0.00850    -0.00398     0.01149
 PX  C   6  -0.23419     0.13653     0.10358    -0.05514    -0.08271     0.07630
 PY  C   6   0.13481     0.22791    -0.17497     0.07467     0.03328     0.13313
 PZ  C   6  -0.07317    -0.00473    -0.07911    -0.26529     0.16433     0.06957
  
  S  C   7   0.02891    -0.06574     0.00760     0.02154     0.03095     0.04251
 PX  C   7  -0.07199     0.13140     0.07577    -0.12032    -0.11653     0.13457
 PY  C   7  -0.13604    -0.05861     0.00242     0.11880     0.09931     0.20598
 PZ  C   7  -0.01030     0.05486     0.02104     0.10875    -0.11271    -0.01433
  
  S  C   8  -0.03850     0.06515    -0.01456     0.03083     0.04823     0.00781
 PX  C   8  -0.04208    -0.15770    -0.01531     0.09452     0.17391    -0.16879
 PY  C   8   0.09991    -0.04564     0.08485    -0.10016    -0.09129    -0.17183
 PZ  C   8  -0.02692     0.01424    -0.00781     0.13424    -0.08001    -0.00502
  
  S  C   9   0.05915    -0.02600     0.00242    -0.00229    -0.00381     0.00082
 PX  C   9   0.08177     0.11054     0.03736    -0.13879    -0.19379     0.15207
 PY  C   9  -0.17840    -0.12744     0.13443     0.12475     0.16007     0.23602
 PZ  C   9   0.02231     0.06888     0.06008     0.27389    -0.20123    -0.01151
  
  S  C  10  -0.01061     0.05445    -0.01032    -0.00397     0.01212    -0.00512
 PX  C  10  -0.09119    -0.08509     0.04044     0.09378     0.20293    -0.14575
 PY  C  10   0.22069     0.08194    -0.08109    -0.14024    -0.16922    -0.22734
 PZ  C  10   0.01926     0.06430     0.08841     0.28161    -0.16160    -0.03746
  
  S  C  11   0.04362    -0.06215     0.03133     0.03292     0.03201     0.01093
 PX  C  11   0.11101     0.03275    -0.02370    -0.10991    -0.16937     0.15765
 PY  C  11  -0.00765    -0.10813     0.14845     0.00426     0.08789     0.15484
 PZ  C  11   0.04965     0.04264     0.10042     0.12789    -0.03910     0.01244
  
  S  H  12   0.06981     0.06397    -0.14516    -0.07032    -0.15518    -0.05397
  
  S  C  13  -0.04876     0.06861     0.02027     0.01829     0.04733     0.02113
 PX  C  13  -0.05537     0.09439     0.07032     0.04020     0.16631    -0.19821
 PY  C  13   0.10313     0.04028    -0.17816    -0.07611    -0.07747    -0.19026
 PZ  C  13   0.06142     0.06347     0.02854     0.12391    -0.09890    -0.05249
  
  S  H  14   0.09407     0.07936     0.03894    -0.14860    -0.15293    -0.11584
  
  S  H  15   0.00511     0.25564    -0.11252     0.00004     0.01543     0.13818
  
  S  H  16  -0.16048    -0.07459     0.18578    -0.09810    -0.09395    -0.07989
  
  S  H  17  -0.14889    -0.07159     0.18647    -0.08915    -0.10467    -0.07441
  
  S  H  18   0.22664    -0.14599    -0.09514     0.06292     0.07621    -0.08141
  
  S  H  19   0.08483     0.05083     0.07774    -0.13679    -0.15425    -0.09828
  
  S  H  20   0.08520     0.01877    -0.18385    -0.08435    -0.15012    -0.06171
  
  S  C  21   0.00197    -0.02243     0.03053     0.01304     0.03664    -0.01655
 PX  C  21   0.02806    -0.22081    -0.12480    -0.06417    -0.15231     0.16558
 PY  C  21   0.21805     0.00021     0.16034    -0.03566     0.03852     0.08840
 PZ  C  21   0.04057     0.03125    -0.01333    -0.19080     0.17188    -0.02787
  
  S  C  22  -0.01925     0.00521    -0.00067     0.00600    -0.00873     0.00920
 PX  C  22   0.02780     0.24751     0.07236    -0.00399     0.11642    -0.12059
 PY  C  22  -0.25496    -0.02136    -0.17242     0.00504    -0.00315    -0.09432
 PZ  C  22   0.08414    -0.01446    -0.00992    -0.26883     0.19373     0.02655
  
  S  C  23  -0.00647    -0.01743    -0.01026     0.00636    -0.00072    -0.01472
 PX  C  23   0.03646    -0.24580    -0.04649    -0.04330    -0.09278     0.15750
 PY  C  23   0.27269     0.04408     0.17765    -0.01140     0.02718     0.06857
 PZ  C  23   0.06731     0.03445    -0.01811    -0.25899     0.18657    -0.00258
  
  S  C  24  -0.02377     0.01001     0.03787     0.00677     0.01303     0.03740
 PX  C  24  -0.03357     0.23336    -0.00067    -0.00705     0.11315    -0.18237
 PY  C  24  -0.19466    -0.00044    -0.20335     0.02566    -0.04182    -0.13681
 PZ  C  24   0.06362    -0.01868    -0.03879    -0.19344     0.08444     0.03122
  
  S  H  25  -0.16492    -0.11796    -0.19811    -0.00809    -0.09647    -0.00514
  
  S  H  26   0.00076     0.24815     0.06449     0.02001     0.10026    -0.13048
  
  S  H  27   0.24515    -0.10361     0.12421    -0.02498    -0.03667     0.14599
  
  S  H  28  -0.15106    -0.10334    -0.17234     0.00183    -0.08304    -0.01435
  
  S  C  29  -0.01109     0.02971    -0.00595    -0.00458     0.00392     0.01054
 PX  C  29  -0.00359     0.20482     0.14930     0.06664     0.17258    -0.16993
 PY  C  29  -0.07269     0.01295    -0.26246    -0.01075    -0.12226    -0.15143
 PZ  C  29   0.08205     0.05390     0.04120    -0.04888     0.06498    -0.01863
  
  S  C  30   0.02793    -0.03037    -0.00742     0.00205    -0.00644    -0.00648
 PX  C  30   0.08370    -0.13363    -0.10183    -0.05902    -0.19362     0.18253
 PY  C  30   0.14986    -0.01942     0.28962     0.01799     0.10583     0.14973
 PZ  C  30   0.10518     0.03012     0.01183    -0.05733     0.00019     0.00391




    ROOT NO.   37          38          39          40          41          42

           -10.58337    -9.84410    -9.67184    -8.23767    -8.08913    -6.67685
  
  
  S  C   1  -0.00119    -0.00812    -0.00319     0.00479    -0.00508    -0.00367
 PX  C   1  -0.01136    -0.02886    -0.02037     0.02514    -0.01926    -0.01773
 PY  C   1  -0.00362    -0.05876    -0.01488     0.02752    -0.03869    -0.02343
 PZ  C   1   0.06969     0.35353     0.15847    -0.22731     0.25176     0.18646
  
  S  C   2   0.01808     0.00418     0.02564    -0.02216    -0.00463     0.01405
 PX  C   2   0.00027    -0.00233    -0.00450     0.00721     0.00359    -0.00747
 PY  C   2  -0.01574    -0.00664    -0.02946     0.02859     0.00735    -0.01837
 PZ  C   2   0.19774     0.14793     0.33618    -0.34596    -0.02747     0.23553
  
  S  C   3   0.00151     0.00172     0.00151    -0.00132     0.00232     0.00303
 PX  C   3  -0.00120     0.01003    -0.00560     0.01284     0.01264    -0.00535
 PY  C   3  -0.00481     0.00004     0.00347    -0.01672    -0.00282     0.01693
 PZ  C   3   0.23834    -0.23055     0.26147    -0.02983    -0.34360    -0.13752
  
  S  C   4   0.00437     0.01692     0.00595    -0.00439     0.01223    -0.00445
 PX  C   4  -0.00573    -0.02456    -0.00573    -0.01064    -0.02476     0.01276
 PY  C   4   0.00415    -0.00101    -0.00607     0.01514     0.00042    -0.01442
 PZ  C   4  -0.20603    -0.29197    -0.22700     0.05860    -0.34092     0.13856
  
  S  C   5   0.00176     0.00636     0.00214     0.00366     0.00403    -0.00270
 PX  C   5  -0.01459     0.01661    -0.02259     0.03059     0.00944    -0.01915
 PY  C   5   0.03071    -0.00671     0.04402    -0.03444     0.00218     0.01854
 PZ  C   5  -0.21798     0.07005    -0.33774     0.33996     0.00415    -0.23084
  
  S  C   6  -0.00742     0.00228    -0.01125     0.00756     0.00302    -0.00392
 PX  C   6   0.00539    -0.01371     0.00743    -0.01173    -0.00945     0.01000
 PY  C   6   0.00399    -0.02651     0.00950    -0.02051    -0.02569     0.02251
 PZ  C   6  -0.12277     0.31947    -0.19017     0.20480     0.27523    -0.19105
  
  S  C   7  -0.02001     0.00217    -0.00807    -0.00704     0.00143     0.00583
 PX  C   7  -0.02727     0.00848    -0.01292    -0.02464     0.00154     0.02843
 PY  C   7   0.02553    -0.01691     0.02089     0.01263     0.00168    -0.02697
 PZ  C   7   0.34649    -0.18020     0.21624     0.21844     0.00532    -0.37290
  
  S  C   8  -0.01320    -0.00985    -0.00242     0.00116    -0.00547     0.00085
 PX  C   8   0.00567     0.01818     0.02744     0.00603     0.01393    -0.01882
 PY  C   8  -0.00370     0.00447    -0.00276    -0.00854     0.00836     0.01016
 PZ  C   8  -0.30990    -0.25375    -0.19840    -0.22175    -0.01720     0.37874
  
  S  C   9   0.01144     0.01277    -0.00668     0.00137    -0.00064     0.00156
 PX  C   9   0.02462     0.00044    -0.02007     0.01132    -0.02605     0.00234
 PY  C   9  -0.00061    -0.00812     0.01439     0.00025    -0.01872    -0.01957
 PZ  C   9  -0.25157    -0.02802    -0.01371    -0.24896     0.35583     0.00771
  
  S  C  10  -0.01150    -0.00417     0.00867    -0.00427    -0.00740    -0.00706
 PX  C  10  -0.04376    -0.00404     0.01921    -0.01640    -0.03012    -0.00792
 PY  C  10   0.00058     0.01341    -0.02191    -0.00213     0.00158     0.01896
 PZ  C  10   0.26513     0.01115    -0.01195     0.21825     0.36982     0.00161
  
  S  C  11   0.03175     0.01876    -0.02118     0.02034    -0.00131     0.03317
 PX  C  11   0.00837    -0.00579    -0.00761    -0.01026     0.00164    -0.01072
 PY  C  11  -0.06479    -0.03855     0.04402    -0.03107    -0.00480    -0.04906
 PZ  C  11   0.31310     0.22376    -0.22815     0.22187    -0.00170     0.37698
  
  S  H  12   0.02191     0.00420    -0.01482    -0.00651     0.00796    -0.01207
  
  S  C  13   0.00269    -0.00428     0.00503     0.01135    -0.00601     0.00643
 PX  C  13   0.01019    -0.00874    -0.00255     0.02095    -0.00176     0.03269
 PY  C  13   0.01989    -0.00672    -0.01154     0.01588     0.00753     0.02515
 PZ  C  13  -0.34619     0.20062     0.18610    -0.22248    -0.00262    -0.35924
  
  S  H  14  -0.00501     0.00213    -0.00658    -0.00330    -0.00029     0.00407
  
  S  H  15  -0.00073     0.01429     0.00088    -0.00515     0.00846     0.00369
  
  S  H  16  -0.00147    -0.00904    -0.00381     0.00799    -0.00395    -0.00896
  
  S  H  17   0.01097    -0.00680     0.01430    -0.00831    -0.00334     0.00059
  
  S  H  18  -0.00353     0.00184    -0.00417     0.00685    -0.00062    -0.00421
  
  S  H  19   0.00278    -0.00066    -0.00795    -0.00287     0.00055     0.00799
  
  S  H  20   0.00738    -0.00123    -0.00541     0.00141     0.00829     0.00043
  
  S  C  21  -0.00001    -0.00150    -0.00505    -0.00924    -0.00189    -0.00776
 PX  C  21   0.02306    -0.00071    -0.02199    -0.01656    -0.00605    -0.00956
 PY  C  21   0.02670    -0.00622    -0.04259    -0.04192    -0.01189    -0.02575
 PZ  C  21   0.21584    -0.12521    -0.31744    -0.34180    -0.01874    -0.22701
  
  S  C  22   0.00038     0.01541    -0.00093     0.00424    -0.01329     0.00559
 PX  C  22   0.00206    -0.04212    -0.00698    -0.02130     0.02895    -0.01911
 PY  C  22   0.00743    -0.02751    -0.00315    -0.00917     0.02543    -0.00876
 PZ  C  22   0.12165    -0.34844    -0.14348    -0.22696     0.24330    -0.17885
  
  S  C  23  -0.00601     0.01526     0.00335    -0.00051    -0.01385    -0.00486
 PX  C  23   0.01087    -0.04038     0.00498     0.01441     0.03496     0.01827
 PY  C  23  -0.00419    -0.00127     0.00129     0.00162    -0.00240     0.00200
 PZ  C  23  -0.07712    -0.33431     0.20881     0.22193     0.26091     0.19891
  
  S  C  24  -0.00440    -0.00454     0.00063    -0.00579     0.00167    -0.00554
 PX  C  24  -0.04076    -0.00121     0.05783     0.05202    -0.00964     0.02963
 PY  C  24   0.03564     0.01561    -0.03700    -0.02239    -0.00074    -0.01113
 PZ  C  24  -0.19801    -0.09934     0.34431     0.35099     0.00572     0.22712
  
  S  H  25   0.00110    -0.00213     0.00881     0.01269     0.00966     0.00901
  
  S  H  26  -0.00769    -0.01369     0.00532    -0.00136     0.01177    -0.00330
  
  S  H  27   0.00381    -0.01030    -0.00294     0.00187     0.00860     0.00576
  
  S  H  28   0.02681    -0.00074    -0.02072    -0.00566     0.00871     0.00196
  
  S  C  29   0.00662    -0.00280    -0.01039    -0.01262    -0.00477    -0.00785
 PX  C  29  -0.01490     0.00427     0.01038     0.00906    -0.00049     0.00675
 PY  C  29   0.03082     0.00635    -0.01680     0.01032     0.01913     0.01335
 PZ  C  29   0.20279     0.26943    -0.25616    -0.02670    -0.33953     0.13107
  
  S  C  30  -0.00743     0.00803     0.01202     0.00917    -0.00374     0.00257
 PX  C  30   0.03075    -0.01933    -0.02602    -0.00809     0.02603     0.00298
 PY  C  30  -0.02638    -0.00882     0.01383    -0.00475    -0.00627    -0.00579
 PZ  C  30  -0.23978     0.26882     0.22137     0.05460    -0.32842    -0.14496




    ROOT NO.   43          44          45          46          47          48

            -1.06790     0.21110     0.26360     1.21844     1.35068     1.81036
  
  
  S  C   1   0.00147    -0.00791    -0.00215     0.00817     0.00901    -0.01358
 PX  C   1  -0.00890    -0.00970     0.01779     0.00325    -0.01996    -0.00614
 PY  C   1  -0.02763     0.00251     0.04398    -0.01578    -0.04488     0.00945
 PZ  C   1   0.20312     0.01046    -0.33999     0.09171     0.37859    -0.05174
  
  S  C   2  -0.02134     0.03017     0.02129    -0.03234    -0.02689     0.03412
 PX  C   2   0.00694    -0.00634    -0.00400     0.00849     0.00088    -0.00369
 PY  C   2   0.01918    -0.01788    -0.01847     0.02617     0.01425    -0.01527
 PZ  C   2  -0.24094     0.25768     0.22617    -0.28810    -0.20398     0.19268
  
  S  C   3   0.01511    -0.01330    -0.02394     0.00900     0.03322    -0.01517
 PX  C   3   0.00451     0.00684     0.00042    -0.02676    -0.00201     0.02444
 PY  C   3  -0.00519     0.01248     0.00057    -0.01028     0.00121     0.00577
 PZ  C   3  -0.13794    -0.27504     0.21642     0.29414    -0.17532    -0.26933
  
  S  C   4   0.00108    -0.01165     0.01617    -0.00595    -0.04213     0.01688
 PX  C   4  -0.00977     0.01000    -0.00986     0.00361     0.00947    -0.00338
 PY  C   4   0.00094    -0.00408    -0.00434    -0.00019     0.00294     0.00325
 PZ  C   4  -0.13629     0.19442    -0.29297     0.16184     0.33742    -0.21116
  
  S  C   5  -0.00416     0.01366    -0.00459    -0.00546     0.03025    -0.00387
 PX  C   5  -0.01145     0.01459     0.00924    -0.01309     0.00973     0.00624
 PY  C   5   0.02588    -0.02969    -0.02047     0.03540    -0.00563    -0.02569
 PZ  C   5  -0.24175     0.24588     0.23265    -0.32417     0.00558     0.23649
  
  S  C   6   0.00890    -0.01438    -0.00461     0.01210    -0.01715    -0.00296
 PX  C   6  -0.00203     0.00713    -0.00474    -0.00488     0.00547     0.00543
 PY  C   6  -0.01714     0.02963    -0.00765    -0.01962     0.02319     0.01333
 PZ  C   6   0.19996    -0.33471     0.05100     0.22542    -0.28185    -0.14383
  
  S  C   7  -0.01785     0.01675     0.01444     0.01591    -0.02460    -0.01098
 PX  C   7  -0.02056     0.01237    -0.00069     0.02551     0.00066    -0.02894
 PY  C   7   0.01631    -0.00194    -0.00787    -0.00397     0.00208     0.02437
 PZ  C   7   0.35994    -0.14422    -0.14204    -0.21286     0.11924     0.37040
  
  S  C   8   0.00339     0.00600     0.00319    -0.00342     0.02321    -0.01493
 PX  C   8  -0.00670     0.00480     0.01795     0.00234     0.00838    -0.01698
 PY  C   8   0.00816    -0.00639     0.00284    -0.00409    -0.01379     0.00863
 PZ  C   8   0.38008    -0.16316    -0.12718    -0.13657    -0.28392     0.31051
  
  S  C   9  -0.00912    -0.00549    -0.01641     0.00667    -0.02082     0.01707
 PX  C   9  -0.01031     0.00657    -0.03051     0.00290     0.00129     0.01519
 PY  C   9   0.00055    -0.00530    -0.01593    -0.01130     0.00432     0.00416
 PZ  C   9  -0.01095    -0.06275     0.42863    -0.00649     0.03688    -0.26307
  
  S  C  10   0.01549    -0.01686     0.00667    -0.03025     0.02102    -0.02182
 PX  C  10   0.00706    -0.02665     0.01251    -0.01788     0.00380    -0.00437
 PY  C  10  -0.00907     0.00059     0.00843     0.00553    -0.00373    -0.00594
 PZ  C  10  -0.00184     0.41989    -0.11491    -0.04248     0.01326    -0.28264
  
  S  C  11  -0.03544    -0.00378    -0.01492     0.06502    -0.03859     0.07310
 PX  C  11   0.01162     0.00205     0.00467     0.00123     0.00459     0.00321
 PY  C  11   0.04518     0.02565     0.01901    -0.02125     0.01612    -0.02633
 PZ  C  11  -0.35507    -0.15908    -0.14458     0.27435    -0.17202     0.28288
  
  S  H  12   0.01809     0.01166     0.01216    -0.03596     0.02563    -0.04959
  
  S  C  13   0.01018     0.00762     0.01590     0.00189     0.01731    -0.01238
 PX  C  13   0.03065     0.01114     0.01771    -0.00699    -0.00857    -0.01920
 PY  C  13   0.01852     0.00749     0.00578    -0.00612    -0.01609    -0.01324
 PZ  C  13  -0.36350    -0.16119    -0.14165     0.17931     0.21346     0.33503
  
  S  H  14   0.00866    -0.00447    -0.00794    -0.00916     0.01487     0.01530
  
  S  H  15  -0.00005     0.00421     0.00296    -0.00507    -0.00847     0.00873
  
  S  H  16   0.00874    -0.01833    -0.00738     0.02244     0.01215    -0.02324
  
  S  H  17  -0.00128    -0.00576     0.00899     0.00102    -0.01846     0.00236
  
  S  H  18  -0.00855     0.01057     0.00784    -0.01102     0.00834     0.00442
  
  S  H  19  -0.00354     0.00256    -0.00078     0.00358    -0.00880     0.00748
  
  S  H  20  -0.00655     0.00198    -0.00467     0.00650    -0.00509     0.00841
  
  S  C  21   0.00404     0.01907    -0.00301     0.02747    -0.02298     0.02106
 PX  C  21   0.01528     0.00515     0.01471    -0.00091     0.01558    -0.00514
 PY  C  21   0.02416     0.02707     0.02035     0.02895     0.00930     0.01641
 PZ  C  21   0.22121     0.26739     0.22889     0.30924     0.16312     0.19884
  
  S  C  22   0.00798    -0.01434     0.01740    -0.02140     0.03917    -0.01040
 PX  C  22  -0.01620     0.00725    -0.03265    -0.00178    -0.04112    -0.00958
 PY  C  22  -0.01939    -0.00433    -0.02261    -0.00408    -0.01675    -0.00157
 PZ  C  22  -0.19329    -0.00755    -0.33634    -0.09319    -0.35776    -0.12588
  
  S  C  23   0.00932     0.01731    -0.01468     0.00517    -0.04275    -0.00678
 PX  C  23  -0.02451    -0.03678     0.00312    -0.02599     0.03085    -0.00548
 PY  C  23   0.00664     0.00352     0.00793     0.00186     0.00658    -0.00019
 PZ  C  23  -0.19051    -0.33997     0.03782    -0.25509     0.30111    -0.03556
  
  S  C  24  -0.00278    -0.00700     0.00640    -0.01243     0.02810    -0.01181
 PX  C  24   0.02972     0.03105     0.02387     0.03960    -0.00771     0.02086
 PY  C  24  -0.01496    -0.01681    -0.02301    -0.02475    -0.00959    -0.00881
 PZ  C  24   0.22992     0.26862     0.23816     0.36400    -0.05305     0.15801
  
  S  H  25  -0.00836    -0.01050     0.00104    -0.00694     0.01302    -0.00373
  
  S  H  26  -0.00599     0.01155    -0.00887     0.02166    -0.02279     0.01380
  
  S  H  27  -0.00413    -0.00872     0.01599     0.00554     0.03159     0.01129
  
  S  H  28  -0.00457     0.00198     0.00056     0.01637    -0.01126     0.01551
  
  S  C  29   0.00948    -0.01680     0.00936    -0.04650     0.03433    -0.04613
 PX  C  29  -0.00869    -0.00168    -0.00947     0.00308    -0.01309     0.00514
 PY  C  29  -0.02473    -0.00570    -0.01071     0.01603    -0.00733     0.01636
 PZ  C  29   0.15120    -0.25484     0.22602    -0.31937     0.23159    -0.18049
  
  S  C  30  -0.00213     0.00395    -0.02046     0.00687    -0.03800     0.01690
 PX  C  30  -0.01747    -0.00914     0.00924     0.01444     0.01291     0.01446
 PY  C  30   0.00712    -0.00143     0.00801    -0.00778     0.01033    -0.00825
 PZ  C  30   0.13761     0.17769    -0.28475    -0.19964    -0.30009    -0.23417




    ROOT NO.   49          50          51          52          53          54

             2.36513     2.48269     2.82799     3.09024     3.29291     3.35032
  
  
  S  C   1   0.08695    -0.09190    -0.16838    -0.06086    -0.24523    -0.16195
 PX  C   1   0.00599    -0.03481    -0.02287     0.00547    -0.06297     0.02670
 PY  C   1  -0.01735    -0.03705    -0.02453     0.02551     0.04793    -0.05589
 PZ  C   1   0.24111     0.21471     0.01390    -0.24395    -0.00064     0.05615
  
  S  C   2  -0.13299     0.13116     0.20739     0.07164     0.28853     0.08573
 PX  C   2  -0.01272     0.02706     0.00594    -0.02002    -0.01396    -0.05034
 PY  C   2  -0.02145     0.06503     0.04775    -0.03269     0.03286    -0.00122
 PZ  C   2  -0.15391    -0.17174    -0.02815     0.24035    -0.02663    -0.07666
  
  S  C   3   0.17216    -0.21765    -0.24652     0.00759    -0.20329    -0.03032
 PX  C   3  -0.00793     0.00350     0.06640     0.03157    -0.04505     0.11087
 PY  C   3   0.01506    -0.04803    -0.02940     0.04063     0.14490    -0.02363
 PZ  C   3   0.04161     0.04321    -0.02369    -0.29971    -0.02972     0.08280
  
  S  C   4  -0.17612     0.23419     0.26454    -0.03031    -0.18196     0.14587
 PX  C   4  -0.02043     0.03241    -0.00814     0.00037     0.01409    -0.09629
 PY  C   4   0.01113    -0.00081    -0.04744    -0.00818    -0.16631    -0.03583
 PZ  C   4  -0.07757    -0.01307     0.04266     0.30201     0.02460    -0.06218
  
  S  C   5   0.12730    -0.14625    -0.21812     0.00210     0.13170    -0.24610
 PX  C   5   0.04756    -0.05349    -0.04703     0.01086     0.06560     0.01089
 PY  C   5  -0.02835    -0.01578     0.01364     0.04324     0.02617     0.02030
 PZ  C   5   0.19636     0.14221    -0.00504    -0.25856    -0.03330     0.06553
  
  S  C   6  -0.09608     0.08570     0.16912     0.05177    -0.00038     0.23408
 PX  C   6  -0.01243     0.02957     0.03231    -0.00623     0.01986     0.02327
 PY  C   6   0.01235     0.03469     0.01121    -0.03972    -0.10980     0.02197
 PZ  C   6  -0.25509    -0.20918    -0.01292     0.24504     0.01100    -0.06885
  
  S  C   7  -0.15186     0.18783     0.09574    -0.04880     0.20932    -0.19193
 PX  C   7   0.01091    -0.02795    -0.09340    -0.01992    -0.03942    -0.09624
 PY  C   7  -0.02390     0.04478    -0.01793    -0.00245     0.01667    -0.09115
 PZ  C   7   0.12232     0.07998     0.02848     0.14695     0.05324    -0.06529
  
  S  C   8   0.16135    -0.22594    -0.13749     0.02198     0.31869     0.08189
 PX  C   8   0.01168    -0.00836     0.07262     0.01145     0.03696     0.11716
 PY  C   8  -0.02412     0.02390     0.04873    -0.00787    -0.00044     0.05562
 PZ  C   8  -0.10389    -0.10176    -0.01587    -0.14466    -0.03996     0.03976
  
  S  C   9  -0.15707     0.21356    -0.01105    -0.03653    -0.27028    -0.27383
 PX  C   9  -0.00586    -0.01964    -0.08184     0.00159     0.08290    -0.05017
 PY  C   9   0.00643    -0.02097    -0.03265     0.02256    -0.10129     0.10369
 PZ  C   9   0.27349     0.21522    -0.00474     0.00056     0.06878    -0.02754
  
  S  C  10   0.15509    -0.21364     0.02768     0.05417    -0.11225     0.38648
 PX  C  10  -0.00543     0.01909     0.07378    -0.00010    -0.06624    -0.01463
 PY  C  10   0.01182    -0.01548     0.03400    -0.00341     0.15410     0.03867
 PZ  C  10  -0.28908    -0.17471    -0.01937    -0.01074    -0.07541     0.02717
  
  S  C  11  -0.09164     0.19994    -0.14953    -0.03388     0.18790    -0.22001
 PX  C  11   0.03226    -0.02898    -0.05961     0.02229    -0.00478     0.12836
 PY  C  11  -0.03326     0.03506    -0.07645     0.02871     0.02567     0.02460
 PZ  C  11   0.14613     0.01060     0.01531    -0.12289     0.02726     0.07670
  
  S  H  12   0.03874    -0.11132     0.08341     0.02431    -0.07244     0.12820
  
  S  C  13   0.11690    -0.17982     0.13982    -0.00947     0.23068     0.07315
 PX  C  13   0.00206    -0.00825     0.08663    -0.03334    -0.02765    -0.08862
 PY  C  13  -0.02464     0.04188     0.01433    -0.02284    -0.05143    -0.06763
 PZ  C  13  -0.11901    -0.11357     0.04818     0.14342    -0.06890    -0.02244
  
  S  H  14   0.08061    -0.09548    -0.05436     0.03841    -0.07262     0.09977
  
  S  H  15  -0.05582     0.05808     0.10473     0.03491     0.17478     0.09619
  
  S  H  16   0.07600    -0.07176    -0.12741    -0.05413    -0.14840    -0.06814
  
  S  H  17  -0.06894     0.08374     0.13390    -0.00764    -0.04719     0.16298
  
  S  H  18   0.06418    -0.05570    -0.10773    -0.03849     0.01873    -0.14777
  
  S  H  19  -0.09508     0.13745     0.09378    -0.01054    -0.17351    -0.07967
  
  S  H  20  -0.05983     0.09055    -0.08407     0.00500    -0.09316    -0.06051
  
  S  C  21  -0.05219     0.15021    -0.24601     0.08310     0.17910     0.09943
 PX  C  21   0.02098    -0.05018     0.05288     0.01216    -0.04451     0.04271
 PY  C  21  -0.01006    -0.00213    -0.01969     0.00716    -0.00257     0.04328
 PZ  C  21  -0.21908    -0.12112    -0.07596    -0.23383     0.02133     0.07752
  
  S  C  22   0.00001    -0.12201     0.18551    -0.13704    -0.09665    -0.16501
 PX  C  22   0.02235     0.03747    -0.02559     0.03633    -0.01050     0.01685
 PY  C  22  -0.00102     0.01077    -0.00363    -0.01872     0.06975    -0.05331
 PZ  C  22   0.30557     0.12070     0.12169     0.20292    -0.03837    -0.09200
  
  S  C  23   0.00267     0.12677    -0.18368     0.15518    -0.07573     0.22711
 PX  C  23  -0.01453    -0.02620     0.00701    -0.01049     0.05295     0.00876
 PY  C  23  -0.00180    -0.01438     0.02097    -0.01486    -0.04502    -0.00569
 PZ  C  23  -0.30129    -0.09852    -0.13125    -0.19795     0.03960     0.08832
  
  S  C  24   0.03797    -0.15709     0.23030    -0.11568     0.13306    -0.18950
 PX  C  24   0.00287     0.01925     0.00462    -0.01140    -0.02253    -0.05464
 PY  C  24  -0.03600     0.04211    -0.06307    -0.01593    -0.02122     0.01129
 PZ  C  24   0.21495     0.06806     0.10900     0.22654    -0.06679    -0.06479
  
  S  H  25   0.02645    -0.08732     0.15135    -0.06159    -0.08935    -0.08235
  
  S  H  26  -0.00227     0.07408    -0.11321     0.07845     0.07520     0.09272
  
  S  H  27   0.00065    -0.08406     0.12067    -0.09921     0.06369    -0.15442
  
  S  H  28  -0.01538     0.08989    -0.13867     0.07943    -0.06072     0.11759
  
  S  C  29   0.09064    -0.21059     0.29886    -0.03237    -0.17440    -0.00896
 PX  C  29  -0.01224     0.02569     0.01093    -0.02241    -0.04648    -0.05843
 PY  C  29   0.00377    -0.01442     0.06036    -0.03759     0.09427    -0.09626
 PZ  C  29   0.04472     0.07160     0.03994     0.28624    -0.04410    -0.08646
  
  S  C  30  -0.09223     0.21183    -0.29035     0.05726    -0.11778     0.10400
 PX  C  30   0.01562     0.00413    -0.06035     0.03762     0.09017     0.06237
 PY  C  30   0.01584    -0.02523     0.02771     0.02563    -0.08828     0.05471
 PZ  C  30  -0.05095    -0.01503    -0.07314    -0.29451     0.09221     0.06073




    ROOT NO.   55          56          57          58          59          60

             3.52039     3.70244     3.78230     3.83883     4.15227     4.31660
  
  
  S  C   1  -0.05624    -0.20798     0.31989    -0.05169     0.13620    -0.00632
 PX  C   1   0.02532     0.03220    -0.01874     0.12290     0.08694    -0.00225
 PY  C   1  -0.01575    -0.02958     0.00588    -0.10698    -0.05870    -0.01826
 PZ  C   1  -0.11537     0.04331    -0.01263    -0.01015    -0.02335     0.00801
  
  S  C   2   0.01117     0.05923    -0.13962    -0.21722    -0.25631     0.01333
 PX  C   2  -0.04099    -0.09194     0.13891    -0.10093     0.02432    -0.00855
 PY  C   2  -0.04444    -0.03512     0.07852    -0.05209     0.06031    -0.01577
 PZ  C   2   0.13571    -0.07161     0.04503     0.02646     0.07575    -0.02228
  
  S  C   3   0.09926     0.09981    -0.18437     0.28823    -0.02991     0.07345
 PX  C   3   0.06222    -0.00023     0.02619    -0.01846    -0.13486     0.05875
 PY  C   3   0.00669     0.06762    -0.15126    -0.05511    -0.08422    -0.01582
 PZ  C   3  -0.23590     0.10706    -0.02929     0.00150    -0.07021     0.04221
  
  S  C   4   0.00445    -0.13256     0.28844    -0.03710     0.01658     0.03041
 PX  C   4  -0.02214    -0.06592     0.00418    -0.15031    -0.15676     0.02038
 PY  C   4   0.05362    -0.00865    -0.05525     0.11368    -0.10873     0.08772
 PZ  C   4   0.24160    -0.10539     0.03946    -0.00997     0.05124    -0.03345
  
  S  C   5  -0.05656    -0.05006    -0.10962    -0.26247    -0.28955     0.02755
 PX  C   5   0.01974     0.08792    -0.13194     0.10248     0.04733     0.00258
 PY  C   5   0.03922     0.03938    -0.07716     0.03771    -0.04462     0.01863
 PZ  C   5  -0.13748     0.06295    -0.02452     0.02285    -0.02927     0.02173
  
  S  C   6   0.11594     0.18558    -0.19459     0.31478     0.08459     0.03647
 PX  C   6  -0.00807     0.01015    -0.00162    -0.01415     0.01107    -0.01944
 PY  C   6  -0.01028    -0.04399     0.12372     0.06448     0.13414    -0.01171
 PZ  C   6   0.10484    -0.06046     0.03837    -0.02214     0.02728    -0.01626
  
  S  C   7  -0.16679    -0.05432     0.00640    -0.11022     0.27871    -0.17598
 PX  C   7  -0.00761     0.03093    -0.09660     0.13164     0.04527     0.02413
 PY  C   7   0.00515    -0.01818    -0.04221     0.05599    -0.00091     0.05082
 PZ  C   7   0.21238    -0.10372    -0.00108    -0.01035     0.07000    -0.05911
  
  S  C   8  -0.06687     0.15554    -0.03115    -0.02788     0.29247    -0.16806
 PX  C   8   0.01258    -0.03929     0.16127    -0.02643    -0.01392     0.06771
 PY  C   8  -0.01694    -0.00076     0.06632    -0.00475     0.10165    -0.04827
 PZ  C   8  -0.22887     0.08674     0.00285     0.00567    -0.03832     0.03662
  
  S  C   9   0.01518    -0.02846    -0.24952     0.09375    -0.08187    -0.10408
 PX  C   9  -0.04249     0.08150    -0.06621    -0.01506     0.12752    -0.11655
 PY  C   9   0.03457     0.06276     0.02600    -0.06602    -0.08281    -0.13578
 PZ  C   9   0.31522    -0.12784    -0.03197    -0.01387     0.03807    -0.05886
  
  S  C  10   0.08157     0.04571     0.18878    -0.12200    -0.16487    -0.05409
 PX  C  10  -0.02273    -0.03502    -0.06678    -0.06271     0.00028    -0.17598
 PY  C  10  -0.04852    -0.00570     0.08084    -0.06840     0.12152    -0.00842
 PZ  C  10  -0.30080     0.14141     0.02662     0.01760    -0.04353     0.05729
  
  S  C  11   0.05386     0.05083     0.04856     0.13479     0.08403     0.33942
 PX  C  11   0.04761     0.05507     0.12776    -0.00411    -0.06377     0.03048
 PY  C  11  -0.00671     0.07465     0.08761     0.01506    -0.04238    -0.02699
 PZ  C  11   0.20488    -0.11671    -0.02843    -0.04910     0.00326    -0.11521
  
  S  H  12  -0.06710    -0.03399    -0.01205    -0.06956    -0.05411    -0.28790
  
  S  C  13  -0.06048    -0.17851     0.10530     0.07020     0.05016     0.38798
 PX  C  13  -0.02326    -0.09405    -0.07725     0.08776    -0.02746    -0.04971
 PY  C  13   0.00718    -0.03541    -0.05946     0.04929    -0.00347     0.03795
 PZ  C  13  -0.24048     0.09825     0.02165     0.01836    -0.01914     0.03525
  
  S  H  14   0.11102     0.02882    -0.00863     0.05911    -0.21806     0.17281
  
  S  H  15   0.02280     0.13623    -0.20583     0.02109    -0.06453    -0.01580
  
  S  H  16  -0.02987    -0.03425     0.09155     0.13581     0.22364    -0.03294
  
  S  H  17   0.01994     0.04381     0.07822     0.17205     0.25606    -0.04484
  
  S  H  18  -0.08668    -0.11348     0.12782    -0.21156    -0.02496    -0.04515
  
  S  H  19   0.04645    -0.13668     0.02595    -0.00110    -0.27915     0.19598
  
  S  H  20   0.02187     0.12328    -0.05084    -0.02391    -0.02951    -0.32436
  
  S  C  21  -0.08868    -0.09913     0.18141     0.25823    -0.20546    -0.18824
 PX  C  21  -0.06266    -0.14294    -0.10116     0.02235    -0.01731    -0.05695
 PY  C  21  -0.03215    -0.08712    -0.06072    -0.00474     0.02880     0.03600
 PZ  C  21   0.13696    -0.07871    -0.04107    -0.03755     0.01377    -0.02091
  
  S  C  22   0.19513     0.31900     0.06448    -0.17538     0.06862     0.03988
 PX  C  22  -0.01599     0.00560    -0.00770    -0.01700     0.00390    -0.02582
 PY  C  22   0.02566     0.06497     0.13080     0.10549    -0.09764    -0.07601
 PZ  C  22  -0.08105     0.10271     0.03678     0.00224     0.00192     0.02188
  
  S  C  23  -0.16319    -0.27276    -0.24650    -0.09350     0.10671     0.04464
 PX  C  23  -0.04681    -0.11013    -0.00214     0.10517    -0.05795    -0.08527
 PY  C  23   0.02955     0.04362    -0.03591    -0.08028     0.04921     0.01170
 PZ  C  23   0.08550    -0.09043    -0.04245    -0.02269     0.01864     0.00936
  
  S  C  24  -0.00116    -0.04419     0.12894     0.28102    -0.17755    -0.21256
 PX  C  24   0.07531     0.17344     0.09617    -0.03441    -0.02120     0.00236
 PY  C  24   0.05569     0.07251     0.04453    -0.01767    -0.03498    -0.05660
 PZ  C  24  -0.13384     0.08005     0.01772     0.01248    -0.01279    -0.01044
  
  S  H  25   0.06274     0.06479    -0.11671    -0.16745     0.16525     0.19750
  
  S  H  26  -0.11703    -0.19888    -0.03171     0.11763    -0.03409     0.02312
  
  S  H  27   0.10695     0.18720     0.17874     0.06764    -0.06577     0.02157
  
  S  H  28  -0.00544     0.03421    -0.06809    -0.18492     0.13675     0.21165
  
  S  C  29  -0.08107    -0.20166    -0.27844    -0.08658     0.07041    -0.07387
 PX  C  29   0.06150     0.10212    -0.04156    -0.11553     0.10113     0.11564
 PY  C  29  -0.02531    -0.09478    -0.01766     0.11049     0.01964     0.11095
 PZ  C  29  -0.22948     0.14544     0.06322     0.04226    -0.01635     0.05599
  
  S  C  30   0.13307     0.29526     0.08913    -0.20637     0.01592    -0.04931
 PX  C  30  -0.01628    -0.00451     0.06856    -0.01011     0.03635     0.19539
 PY  C  30  -0.03146    -0.05245    -0.13307    -0.12123     0.08628     0.04299
 PZ  C  30   0.23899    -0.14640    -0.04238    -0.01109     0.01946    -0.01139




    ROOT NO.   61          62          63          64          65          66

             5.24826     5.30896     5.35170     5.67128     6.13204     6.43676
  
  
  S  C   1  -0.03579    -0.08948    -0.27678    -0.11590     0.07479     0.01975
 PX  C   1   0.09629    -0.00536     0.13996     0.16156    -0.12834    -0.02251
 PY  C   1  -0.06330     0.13715     0.24957     0.01895    -0.02170    -0.01524
 PZ  C   1  -0.00857     0.01521     0.02708     0.00356    -0.00550    -0.00198
  
  S  C   2  -0.13515     0.02405    -0.15343    -0.18786     0.13239     0.02019
 PX  C   2  -0.04575    -0.05801    -0.21757    -0.10771     0.07336     0.02200
 PY  C   2   0.03720     0.00250     0.08144     0.13980    -0.20077    -0.04576
 PZ  C   2   0.02772    -0.00617     0.02521     0.03811    -0.03250    -0.00587
  
  S  C   3   0.02230     0.01275     0.06634    -0.05673     0.16379     0.05149
 PX  C   3  -0.16131     0.07030    -0.03227    -0.07495    -0.10809    -0.07081
 PY  C   3  -0.01894    -0.00274    -0.06611    -0.11023     0.18388     0.07258
 PZ  C   3  -0.01863     0.00140    -0.01503    -0.01318     0.00202     0.00012
  
  S  C   4  -0.06519     0.02367     0.00092     0.05344    -0.19373    -0.09677
 PX  C   4   0.09094    -0.05832    -0.01052     0.11124    -0.10117    -0.03474
 PY  C   4   0.06907    -0.00854     0.09672     0.00496     0.17469     0.08714
 PZ  C   4  -0.00703     0.01205     0.01488    -0.00006    -0.00842    -0.00725
  
  S  C   5   0.13323    -0.10232    -0.05778     0.14904    -0.13708    -0.03848
 PX  C   5   0.03377    -0.02400    -0.02176    -0.05546     0.16956     0.09330
 PY  C   5   0.12812    -0.14417    -0.16539     0.12998    -0.17582    -0.06659
 PZ  C   5   0.01435    -0.02102    -0.02765     0.01320    -0.02102    -0.00892
  
  S  C   6   0.15838    -0.18157    -0.21521     0.08938    -0.05723    -0.00049
 PX  C   6  -0.10524     0.15515     0.22571    -0.06620     0.07273     0.00884
 PY  C   6  -0.06692     0.01025    -0.07882    -0.11630     0.10238     0.02657
 PZ  C   6  -0.01898     0.01824     0.01496    -0.01809     0.01550     0.00309
  
  S  C   7   0.24626    -0.10266     0.03504     0.09378     0.13493     0.08151
 PX  C   7   0.05871    -0.03074     0.01002    -0.03430     0.13792     0.05448
 PY  C   7  -0.08031     0.02657    -0.00669    -0.08549    -0.11062    -0.11611
 PZ  C   7   0.03896    -0.01097     0.01101     0.01002     0.02476     0.01009
  
  S  C   8  -0.13318     0.04506    -0.10194    -0.06694    -0.09675    -0.05405
 PX  C   8   0.02700    -0.04975     0.01681     0.12460     0.05202     0.19390
 PY  C   8  -0.08692     0.02970    -0.08162    -0.05482    -0.22195    -0.24285
 PZ  C   8   0.00388    -0.00795    -0.00114     0.00780     0.00794     0.01458
  
  S  C   9  -0.01382     0.06796    -0.00027    -0.15821    -0.05180    -0.22495
 PX  C   9  -0.11015     0.04084    -0.06638    -0.04170    -0.07710    -0.01967
 PY  C   9  -0.06492     0.03793    -0.03367     0.11080    -0.02197     0.16074
 PZ  C   9  -0.00119     0.00962    -0.00404    -0.00666    -0.00766    -0.00444
  
  S  C  10  -0.00749     0.01557     0.00171     0.12711     0.00419     0.09570
 PX  C  10   0.16348    -0.01958     0.04191    -0.06142     0.07531    -0.13658
[...]
  S   H   18    0.0965    0.0128   -0.0523    0.0346   -0.0083    0.0082    0.3211   -0.0293
  S   H   19    0.2186    0.2479    0.2327   -0.0383   -0.0457   -0.0023    0.0435    0.1974
  S   H   20   -0.0870    0.3250    0.1363    0.2504    0.1059    0.0372   -0.0138   -0.2166
  S   C   21   -0.0984    0.0572   -0.0107   -0.0093    0.0003    0.0536   -0.0009    0.0004
  Px  C   21   -0.1213    0.1295   -0.0618   -0.1679   -0.2940   -0.0770    0.0021    0.0541
  Py  C   21    0.1196   -0.1014    0.0296    0.0599    0.0791    0.2510   -0.0052    0.0339
  Pz  C   21    0.0016   -0.0020   -0.0005   -0.0013    0.0008   -0.0211    0.0004   -0.0054
  S   C   22   -0.0414    0.0205    0.0100    0.0292    0.0507   -0.1149    0.0025   -0.0340
  Px  C   22   -0.0577    0.0375    0.0127    0.0380    0.0509    0.5054   -0.0099    0.1156
  Py  C   22   -0.0743    0.0474   -0.0080   -0.0223   -0.0495   -0.0723    0.0022   -0.0106
  Pz  C   22    0.0065   -0.0051    0.0004    0.0011    0.0038   -0.0482    0.0009   -0.0127
  S   C   23    0.0418   -0.0242    0.0095    0.0249    0.0442    0.1337   -0.0028    0.0137
  Px  C   23    0.0953   -0.0648   -0.0009   -0.0155   -0.0484   -0.2134    0.0032    0.0143
  Py  C   23    0.0221   -0.0209    0.0152    0.0394    0.0573   -0.4749    0.0097   -0.0756
  Pz  C   23   -0.0077    0.0071    0.0014    0.0044    0.0078    0.0241   -0.0004   -0.0008
  S   C   24    0.1020   -0.0769   -0.0108   -0.0244   -0.0279   -0.0519    0.0011    0.0331
  Px  C   24   -0.0405    0.0313   -0.0082   -0.0324   -0.0788   -0.2112    0.0037    0.0080
  Py  C   24    0.1298   -0.1437   -0.0411   -0.1743   -0.3132    0.2159   -0.0070   -0.1634
  Pz  C   24    0.0119   -0.0146   -0.0050   -0.0146   -0.0177    0.0381   -0.0007   -0.0093
  S   H   25    0.1780   -0.1429    0.0488    0.1134    0.1755    0.1496   -0.0033    0.0004
  S   H   26    0.0751   -0.0474   -0.0101   -0.0289   -0.0355   -0.3083    0.0059   -0.0702
  S   H   27   -0.0779    0.0560   -0.0111   -0.0189   -0.0144    0.3035   -0.0057    0.0361
  S   H   28   -0.1587    0.1472    0.0323    0.1235    0.2055   -0.1794    0.0050    0.0903
  S   C   29   -0.1371    0.1626   -0.0354   -0.1144   -0.2511    0.0085   -0.0013    0.0066
  Px  C   29    0.0661   -0.0349    0.0064   -0.0322   -0.1204   -0.0693    0.0030    0.0738
  Py  C   29   -0.1215    0.1541   -0.0271    0.0421    0.1825   -0.0334   -0.0008    0.0879
  Pz  C   29    0.0018    0.0014   -0.0020    0.0032    0.0135   -0.0014   -0.0001   -0.0005
  S   C   30    0.1176   -0.1205   -0.0127   -0.1251   -0.2888   -0.0017    0.0002   -0.0178
  Px  C   30    0.0691   -0.1377    0.0137    0.0231    0.0759    0.0614   -0.0015   -0.1950
  Py  C   30   -0.1243    0.1534    0.0014   -0.0286   -0.1427    0.0449   -0.0052   -0.0857
  Pz  C   30   -0.0073    0.0058    0.0040    0.0136    0.0226    0.0022   -0.0001   -0.0084


   Root No.      73        74        75        76        77        78        79        80

                73 A      74 A      75 A      76 A      77 A      78 A      79 A      80 A   

                 9.380     9.564    10.131    10.631    11.061    11.609    11.782    12.119
  
  S   C    1   -0.0284   -0.0593    0.0570   -0.0758    0.0402    0.0238    0.0120   -0.0018
  Px  C    1   -0.1454   -0.2205   -0.0550   -0.1847   -0.2040    0.0007   -0.1701   -0.2255
  Py  C    1   -0.0228   -0.0769    0.1934   -0.0963    0.2105    0.0523    0.1283    0.1323
  Pz  C    1   -0.0144   -0.0277    0.0230   -0.0278    0.0151    0.0081    0.0051    0.0013
  S   C    2    0.0766    0.0888    0.0694    0.0197    0.1080    0.0370    0.0285    0.0203
  Px  C    2   -0.1256   -0.2080    0.0138   -0.2255   -0.0988    0.0547   -0.1490   -0.2254
  Py  C    2    0.2235    0.2109    0.1961   -0.0610    0.2191    0.1322   -0.0283   -0.0850
  Pz  C    2    0.0084    0.0045    0.0087   -0.0104    0.0041    0.0075   -0.0088   -0.0140
  S   C    3    0.0096    0.0378    0.0040    0.0575    0.0460    0.0024    0.0191    0.0205
  Px  C    3    0.2020    0.1703    0.2552   -0.0418   -0.0394   -0.1932    0.1000    0.0856
  Py  C    3    0.0845    0.0481    0.1319   -0.1413    0.3021    0.3162   -0.1564   -0.2536
  Pz  C    3    0.0054    0.0046    0.0115   -0.0042    0.0051   -0.0013    0.0020   -0.0003
  S   C    4    0.0204    0.0426   -0.0007    0.0689   -0.0186   -0.0137   -0.0214   -0.0160
  Px  C    4    0.0725    0.1007   -0.2338   -0.0566   -0.2679   -0.0989    0.0882    0.1254
  Py  C    4    0.0387    0.0980   -0.1330   -0.0137    0.2071    0.3550   -0.1662   -0.2260
  Pz  C    4    0.0000    0.0007    0.0048    0.0054    0.0087    0.0057   -0.0054   -0.0072
  S   C    5    0.0611    0.0887   -0.0743    0.0561   -0.0991   -0.0400   -0.0264   -0.0189
  Px  C    5    0.0287    0.0252   -0.1522   -0.1265   -0.1786   -0.0735    0.1186    0.1541
  Py  C    5   -0.2026   -0.2859    0.1213   -0.2108    0.1419    0.0621    0.1093    0.1138
  Pz  C    5   -0.0225   -0.0315    0.0229   -0.0169    0.0271    0.0117    0.0055    0.0035
  S   C    6   -0.0542   -0.0695   -0.0442   -0.0622   -0.0590   -0.0041   -0.0080   -0.0091
  Px  C    6   -0.1748   -0.2064   -0.1186   -0.1518   -0.1241   -0.0015   -0.0136   -0.0181
  Py  C    6   -0.0745   -0.1404    0.1710   -0.1864    0.2382    0.0665    0.2151    0.2338
  Pz  C    6   -0.0085   -0.0142    0.0134   -0.0165    0.0188    0.0039    0.0205    0.0228
  S   C    7   -0.0896   -0.0449   -0.0797    0.0635    0.0673    0.0477    0.0238    0.0063
  Px  C    7    0.1372    0.1523    0.1702    0.0334    0.0216   -0.1552    0.1434    0.1111
  Py  C    7   -0.2595   -0.0717   -0.1303    0.2007    0.1826    0.0428    0.1484    0.0457
  Pz  C    7    0.0187    0.0116    0.0131   -0.0033   -0.0043   -0.0100    0.0044    0.0057
  S   C    8   -0.0257   -0.0262    0.0704    0.0858   -0.0381   -0.0668   -0.0371    0.0028
  Px  C    8   -0.0099    0.0650   -0.0232    0.2137   -0.0640    0.0630   -0.2088   -0.1109
  Py  C    8    0.0903    0.1249   -0.1807   -0.0929    0.0518    0.1883   -0.0283   -0.0920
  Pz  C    8   -0.0006    0.0019    0.0016    0.0107   -0.0044   -0.0008   -0.0088   -0.0042
  S   C    9   -0.0056   -0.0354    0.0419    0.0066   -0.0109   -0.0348   -0.0108   -0.0016
  Px  C    9   -0.0293    0.0336    0.0424    0.2786   -0.1223   -0.0086   -0.2282   -0.1004
  Py  C    9   -0.0149   -0.0290   -0.1486    0.1228   -0.0292    0.1547    0.3966   -0.0333
  Pz  C    9   -0.0021    0.0002   -0.0007    0.0182   -0.0074    0.0035   -0.0011   -0.0065
  S   C   10   -0.0010   -0.0383   -0.0474   -0.0112    0.0057    0.0281    0.0117    0.0081
  Px  C   10   -0.2107   -0.0590    0.0575    0.2259    0.2064   -0.1372   -0.2155    0.0904
  Py  C   10   -0.1074    0.0154   -0.1325    0.1015    0.1486    0.0880    0.3956    0.0640
  Pz  C   10   -0.0193   -0.0051    0.0022    0.0174    0.0160   -0.0083   -0.0123    0.0069
  S   C   11    0.0905   -0.0165   -0.0718   -0.0809   -0.0379    0.0671    0.0257    0.0247
  Px  C   11   -0.1512   -0.0772   -0.0027    0.1789    0.1608   -0.0695   -0.2027    0.1152
  Py  C   11    0.2780   -0.1058   -0.2053   -0.1384   -0.0137    0.1320   -0.0380    0.1514
  Pz  C   11    0.0194   -0.0125   -0.0171   -0.0017    0.0072    0.0059   -0.0118    0.0165
  S   H   12    0.1849   -0.0282   -0.1033   -0.1089   -0.0518    0.0936    0.0440    0.0472
  S   C   13    0.0226   -0.0316    0.0861   -0.0740   -0.0001   -0.0764   -0.0329   -0.0169
  Px  C   13    0.0690   -0.1391    0.1726    0.0340   -0.0742   -0.1116    0.1140   -0.1647
  Py  C   13   -0.0721    0.0416   -0.1440    0.2256   -0.0411    0.1215    0.1526   -0.0178
  Pz  C   13    0.0020   -0.0087    0.0072    0.0123   -0.0081   -0.0023    0.0144   -0.0121
  S   H   14   -0.1710   -0.0752   -0.1133    0.0825    0.0939    0.0752    0.0435   -0.0113
  S   H   15   -0.0652   -0.1198    0.0728   -0.1135    0.0298    0.0265    0.0027   -0.0130
  S   H   16    0.1467    0.1591    0.0955    0.0232    0.1398    0.0582    0.0218    0.0122
  S   H   17    0.1065    0.1449   -0.1021    0.0666   -0.1246   -0.0571   -0.0196   -0.0102
  S   H   18   -0.1056   -0.1248   -0.0694   -0.0906   -0.0719   -0.0025   -0.0058   -0.0086
  S   H   19   -0.0447   -0.0464    0.0849    0.0840   -0.0466   -0.0834   -0.0362    0.0219
  S   H   20    0.0550   -0.0609    0.1243   -0.0940    0.0038   -0.1015   -0.0470   -0.0453
  S   C   21   -0.0900    0.0876    0.0656   -0.0077   -0.0815    0.0843    0.0301   -0.0042
  Px  C   21    0.1396   -0.0444   -0.1575   -0.1942    0.0780   -0.1286    0.0899   -0.1893
  Py  C   21   -0.2702    0.2968    0.0945   -0.1355   -0.1557    0.1348    0.1065   -0.1007
  Pz  C   21    0.0225   -0.0290   -0.0065    0.0200    0.0170   -0.0132   -0.0162    0.0174
  S   C   22    0.0457   -0.0781    0.0428    0.0852   -0.0218    0.0341    0.0108    0.0001
  Px  C   22   -0.1159    0.2045   -0.1182   -0.1925    0.0527   -0.0733   -0.0273    0.0088
  Py  C   22   -0.1301    0.1455    0.1367   -0.0765   -0.2223    0.2071    0.2048   -0.2068
  Pz  C   22    0.0214   -0.0328    0.0073    0.0282    0.0045   -0.0004   -0.0084    0.0122
  S   C   23    0.0683   -0.0724   -0.0473    0.0558    0.0497   -0.0266   -0.0089   -0.0044
  Px  C   23   -0.1725    0.2232   -0.0473   -0.2400    0.0896   -0.1655   -0.1711    0.1883
  Py  C   23   -0.1059    0.0677    0.1752    0.0073   -0.1805    0.1615    0.1257   -0.1092
  Pz  C   23    0.0194   -0.0237    0.0009    0.0232   -0.0041    0.0113    0.0155   -0.0193
  S   C   24   -0.0574    0.0783   -0.0626   -0.0537    0.0717   -0.0823   -0.0240   -0.0038
  Px  C   24   -0.1860    0.2341    0.0071   -0.2423    0.0087   -0.0807   -0.1493    0.2033
  Py  C   24    0.1474   -0.1860    0.2091    0.0073   -0.1883    0.1684   -0.0442    0.1460
  Pz  C   24    0.0305   -0.0390    0.0137    0.0308   -0.0163    0.0242    0.0161   -0.0131
  S   H   25   -0.1747    0.1572    0.0912   -0.0070   -0.0983    0.1055    0.0238    0.0103
  S   H   26    0.0709   -0.1265    0.0670    0.1176   -0.0256    0.0398    0.0099    0.0015
  S   H   27    0.1037   -0.1005   -0.0717    0.0700    0.0601   -0.0294   -0.0072   -0.0064
  S   H   28   -0.1287    0.1609   -0.1060   -0.0684    0.0988   -0.1102   -0.0179   -0.0205
  S   C   29   -0.0119    0.0407    0.0065   -0.0508   -0.0372    0.0318    0.0150   -0.0048
  Px  C   29    0.2016   -0.0977   -0.2290   -0.1830    0.1578   -0.2020    0.0697   -0.1879
  Py  C   29    0.1338   -0.0884   -0.1563   -0.0131   -0.0451    0.2863   -0.1575    0.3438
  Pz  C   29    0.0016   -0.0037   -0.0015    0.0038   -0.0004    0.0061   -0.0028    0.0068
  S   C   30   -0.0186    0.0361    0.0055   -0.0601    0.0105   -0.0251   -0.0163    0.0113
  Px  C   30    0.0698   -0.1453    0.2565   -0.0275   -0.0791   -0.1786    0.0775   -0.1696
  Py  C   30    0.0327   -0.0276    0.1390   -0.0504   -0.2113    0.3034   -0.1552    0.3591
  Pz  C   30    0.0042   -0.0083    0.0108    0.0011   -0.0024   -0.0098    0.0033   -0.0087


   Root No.      81        82        83        84

                81 A      82 A      83 A      84 A   

                12.593    12.741    13.165    14.509
  
  S   C    1    0.0602   -0.0014   -0.0059    0.0381
  Px  C    1    0.1697   -0.2285   -0.1920    0.1072
  Py  C    1    0.0428    0.1401    0.1079    0.0210
  Pz  C    1    0.0177    0.0021    0.0006    0.0097
  S   C    2    0.0081    0.0196    0.0146    0.0254
  Px  C    2    0.2149   -0.2270   -0.1914    0.1508
  Py  C    2    0.1261   -0.0675   -0.0505    0.1192
  Pz  C    2    0.0126   -0.0130   -0.0104    0.0097
  S   C    3   -0.0159    0.0026   -0.0109    0.0248
  Px  C    3    0.2562   -0.1097   -0.2463    0.2453
  Py  C    3    0.0957   -0.1263   -0.0175    0.0969
  Pz  C    3    0.0112   -0.0050   -0.0083    0.0105
  S   C    4   -0.0128   -0.0053    0.0067    0.0254
  Px  C    4    0.2855    0.1809    0.1476    0.2202
  Py  C    4    0.0801    0.0312    0.1922    0.1180
  Pz  C    4   -0.0092   -0.0067   -0.0034   -0.0042
  S   C    5    0.0173   -0.0177   -0.0143    0.0277
  Px  C    5    0.2776    0.1974    0.1457    0.1816
  Py  C    5    0.1117    0.1501    0.1223    0.0505
  Pz  C    5   -0.0025    0.0045    0.0042   -0.0043
  S   C    6    0.0676    0.0054    0.0051    0.0394
  Px  C    6    0.1418    0.0123    0.0117    0.0789
  Py  C    6    0.1309    0.2704    0.2142    0.0645
  Pz  C    6    0.0116    0.0253    0.0195    0.0054
  S   C    7   -0.0683   -0.0036    0.0068    0.0089
  Px  C    7    0.2035   -0.1150   -0.2532    0.2701
  Py  C    7   -0.0299   -0.1057   -0.1157    0.1633
  Pz  C    7    0.0109   -0.0039   -0.0117    0.0114
  S   C    8   -0.0568    0.0048   -0.0029    0.0101
  Px  C    8    0.0957    0.1598    0.2377    0.2588
  Py  C    8    0.1576    0.0460    0.1375    0.1234
  Pz  C    8    0.0017    0.0054    0.0081    0.0094
  S   C    9   -0.0605   -0.0146    0.0060    0.0050
  Px  C    9    0.0194    0.1420    0.2305    0.2618
  Py  C    9   -0.0725   -0.2846    0.1209    0.1486
  Pz  C    9   -0.0028   -0.0011    0.0166    0.0185
  S   C   10   -0.0660    0.0079    0.0053   -0.0056
  Px  C   10   -0.0218    0.1537   -0.2220    0.2755
  Py  C   10    0.0184   -0.2656   -0.1306    0.1571
  Pz  C   10   -0.0037    0.0094   -0.0163    0.0200
  S   C   11   -0.0625   -0.0036   -0.0039   -0.0115
  Px  C   11   -0.0984    0.1669   -0.2168    0.2641
  Py  C   11   -0.1831    0.0501   -0.1352    0.1244
  Pz  C   11   -0.0153    0.0098   -0.0187    0.0213
  S   H   12   -0.0504   -0.0287   -0.0078   -0.0106
  S   C   13   -0.0527    0.0066    0.0102   -0.0097
  Px  C   13   -0.2086   -0.1310    0.2638    0.2520
  Py  C   13   -0.0110   -0.1259    0.1196    0.1591
  Pz  C   13   -0.0156   -0.0139    0.0227    0.0239
  S   H   14   -0.0571   -0.0305    0.0081    0.0099
  S   H   15    0.0755   -0.0075   -0.0095    0.0410
  S   H   16    0.0029    0.0245    0.0267    0.0139
  S   H   17    0.0174   -0.0198   -0.0230    0.0185
  S   H   18    0.0786    0.0061    0.0046    0.0404
  S   H   19   -0.0430    0.0197   -0.0131   -0.0016
  S   H   20   -0.0444    0.0289    0.0184   -0.0040
  S   C   21    0.0046    0.0252   -0.0217   -0.0240
  Px  C   21   -0.2582    0.1900   -0.1070    0.1708
  Py  C   21   -0.1386    0.1733   -0.1253    0.0575
  Pz  C   21    0.0225   -0.0242    0.0161   -0.0104
  S   C   22    0.0620   -0.0068    0.0032   -0.0370
  Px  C   22   -0.1222    0.0012    0.0029    0.0707
  Py  C   22   -0.1701    0.2924   -0.2040    0.0715
  Pz  C   22    0.0240   -0.0173    0.0113   -0.0121
  S   C   23    0.0644    0.0000   -0.0059   -0.0370
  Px  C   23   -0.1283   -0.2392    0.1852    0.0912
  Py  C   23   -0.0737    0.1506   -0.1021    0.0289
  Pz  C   23    0.0142    0.0228   -0.0173   -0.0099
  S   C   24    0.0229   -0.0193    0.0158   -0.0267
  Px  C   24   -0.1814   -0.2292    0.1759    0.1298
  Py  C   24   -0.1611   -0.0813    0.0510    0.1238
  Pz  C   24    0.0100    0.0195   -0.0155   -0.0056
  S   H   25    0.0030    0.0285   -0.0310   -0.0152
  S   H   26    0.0725   -0.0055    0.0003   -0.0382
  S   H   27    0.0703   -0.0015   -0.0040   -0.0361
  S   H   28    0.0269   -0.0220    0.0248   -0.0201
  S   C   29   -0.0130    0.0032    0.0056   -0.0242
  Px  C   29   -0.2577    0.1756   -0.1019    0.2025
  Py  C   29   -0.1388    0.0393   -0.2027    0.1339
  Pz  C   29   -0.0019    0.0017   -0.0056    0.0046
  S   C   30   -0.0023    0.0003   -0.0122   -0.0288
  Px  C   30   -0.2328   -0.1210    0.2588    0.2222
  Py  C   30   -0.1481   -0.1284    0.0024    0.1100
  Pz  C   30   -0.0106   -0.0067    0.0142    0.0125


              NET ATOMIC CHARGES AND DIPOLE CONTRIBUTIONS

  ATOM NO.   TYPE          CHARGE      No. of ELECS.   s-Pop       p-Pop       
    1          C          -0.023867        4.0239     1.09686     2.92701
    2          C          -0.029466        4.0295     1.10161     2.92786
    3          C           0.012513        3.9875     1.07211     2.91537
    4          C           0.011091        3.9889     1.07305     2.91586
    5          C          -0.022471        4.0225     1.09633     2.92614
    6          C          -0.027532        4.0275     1.09522     2.93232
    7          C          -0.036033        4.0360     1.09307     2.94297
    8          C          -0.037070        4.0371     1.11789     2.91918
    9          C           0.008411        3.9916     1.06575     2.92584
   10          C           0.016057        3.9839     1.06318     2.92077
   11          C          -0.047454        4.0475     1.10336     2.94409
   12          H           0.025921        0.9741     0.97408
   13          C          -0.031061        4.0311     1.09457     2.93649
   14          H           0.019967        0.9800     0.98003
   15          H           0.023188        0.9768     0.97681
   16          H           0.024562        0.9754     0.97544
   17          H           0.024144        0.9759     0.97586
   18          H           0.024536        0.9755     0.97546
   19          H           0.018472        0.9815     0.98153
   20          H           0.021923        0.9781     0.97808
   21          C          -0.026481        4.0265     1.09585     2.93063
   22          C          -0.019971        4.0200     1.09275     2.92722
   23          C          -0.029288        4.0293     1.10558     2.92371
   24          C          -0.029300        4.0293     1.09567     2.93363
   25          H           0.028094        0.9719     0.97191
   26          H           0.019608        0.9804     0.98039
   27          H           0.017027        0.9830     0.98297
   28          H           0.034853        0.9651     0.96515
   29          C           0.014985        3.9850     1.07002     2.91499
   30          C           0.014644        3.9854     1.06122     2.92414
 DIPOLE           X         Y         Z       TOTAL
 POINT-CHG.    -0.010     0.084     0.002     0.085
 HYBRID        -0.039     0.155    -0.190     0.248
 SUM           -0.049     0.239    -0.188     0.308


          ATOMIC ORBITAL ELECTRON POPULATIONS

     Atom    s        px        py        pz   
    1  C   1.09686   0.96856   0.96826   0.99019
    2  C   1.10161   0.96668   0.95028   1.01090
    3  C   1.07211   0.96708   0.96645   0.98185
    4  C   1.07305   0.96122   0.96843   0.98620
    5  C   1.09633   0.96826   0.95378   1.00411
    6  C   1.09522   0.94222   0.99381   0.99630
    7  C   1.09307   0.96585   0.95327   1.02385
    8  C   1.11789   0.96733   0.93677   1.01508
    9  C   1.06575   0.96778   0.97545   0.98261
   10  C   1.06318   0.96819   0.97650   0.97608
   11  C   1.10336   0.95794   0.95795   1.02821
   12  H   0.97408
   13  C   1.09457   0.96899   0.96003   1.00747
   14  H   0.98003
   15  H   0.97681
   16  H   0.97544
   17  H   0.97586
   18  H   0.97546
   19  H   0.98153
   20  H   0.97808
   21  C   1.09585   0.97141   0.95543   1.00378
   22  C   1.09275   0.94436   0.98772   0.99513
   23  C   1.10558   0.97424   0.94778   1.00170
   24  C   1.09567   0.98295   0.95003   1.00065
   25  H   0.97191
   26  H   0.98039
   27  H   0.98297
   28  H   0.96515
   29  C   1.07002   0.96703   0.97033   0.97764
   30  C   1.06122   0.97560   0.96245   0.98609

 **********************
 *                    *
 * JOB ENDED NORMALLY *
 *                    *
 **********************



 TOTAL JOB TIME:             1.38 SECONDS

 == MOPAC DONE ==


          MOPAC Job: "./tetraceneTraj/tetracene_758.mop" ended normally on Feb 15, 2023, at 11:27.

rm: cannot remove ./tetraceneTraj/tetracene_758.cim: No such file or directory
rm: cannot remove ./tetraceneTraj/tetracene_758.end: No such file or directory
rm: cannot remove ./tetraceneTraj/tetracene_758.log: No such file or directory
rm: cannot remove ./tetraceneTraj/tetracene_758.temp: No such file or directory
rm: cannot remove ./tetraceneTraj/tetracene_758.ple: No such file or directory
rm: cannot remove ./tetraceneTraj/tetracene_758.sts: No such file or directory
