 *******************************************************************************
 ** Site#:    0         For non-commercial use only    Version 20.173L 64BITS **
 *******************************************************************************
 ** Cite this program as: MOPAC2016, Version: 20.173L, James J. P. Stewart,   **
 ** Stewart Computational Chemistry, web-site: HTTP://OpenMOPAC.net.          **
 *******************************************************************************
 **                                                                           **
 **                                MOPAC2016                                  **
 **                                                                           **
 *******************************************************************************

                              INDO CALCULATION RESULTS

 *******************************************************************************
 *  CALCULATION DONE:                                Wed Feb 15 11:31:21 2023  *
 *  INDO       - The INDO Hamiltonian to be used
 *
 *
 *
 *                 CHARGE ON SYSTEM = 0
 *
 *
 *
 *  C.I.=(N,M) - 3 DOUBLY FILLED LEVELS USED IN A C.I. INVOLVING 6 M.O.'S
 *  T=         - A TIME OF 172800.0 SECONDS REQUESTED
 *  DUMP=N     - RESTART FILE WRITTEN EVERY 7200.0 SECONDS REQUESTED
 *  RELSCF     - DEFAULT SCF CRITERION MULTIPLIED BY 0.0000
 *              (DEFAULT SCF CRITERION = 0.00010)
 *  ALLVEC     - PRINT ALL EIGENVECTORS
 **********
 *  WARNING: Specified print options may not behave as expected with INDO
 **********
 *******************************************************************************
INDO C.I.=(6,3) AllVEC CHARGE=0 RELSCF=0.000001


   ATOM   CHEMICAL          X               Y               Z
  NUMBER   SYMBOL      (ANGSTROMS)     (ANGSTROMS)     (ANGSTROMS)
 
     1       C         18.50952236  *  19.51386668  *  22.35158725  *
     2       C         19.93769234  *  19.45055887  *  22.29948867  *
     3       C         20.67922849  *  20.67205807  *  22.43361063  *
     4       C         19.95523831  *  21.95541019  *  22.45075476  *
     5       C         18.48600288  *  21.97111837  *  22.35895170  *
     6       C         17.79186481  *  20.76591559  *  22.35972144  *
     7       C         22.07971442  *  20.63815158  *  22.53046998  *
     8       C         20.74560424  *  23.17708799  *  22.51777403  *
     9       C         22.16685438  *  23.12262076  *  22.57152113  *
    10       C         22.86534597  *  21.81488519  *  22.62021516  *
    11       C         24.33600606  *  21.78960265  *  22.66503014  *
    12       H         24.79215975  *  20.81673413  *  22.46060833  *
    13       C         22.91167136  *  24.35677750  *  22.56798919  *
    14       H         22.64806569  *  19.68798820  *  22.57261403  *
    15       H         18.00302989  *  18.53053311  *  22.42207665  *
    16       H         20.46936672  *  18.46893652  *  22.25134570  *
    17       H         17.98098185  *  22.91233990  *  22.35208315  *
    18       H         16.68615317  *  20.78437191  *  22.35848294  *
    19       H         20.21074025  *  24.12186640  *  22.56607196  *
    20       H         22.44447934  *  25.31177786  *  22.44696786  *
    21       C         26.48836889  *  23.06671911  *  22.47135665  *
    22       C         27.15342041  *  24.26631988  *  22.43408220  *
    23       C         26.44215925  *  25.57840910  *  22.56206240  *
    24       C         25.07748790  *  25.58379076  *  22.64603865  *
    25       H         27.03632744  *  22.09724156  *  22.46812225  *
    26       H         28.26436203  *  24.25140379  *  22.28716826  *
    27       H         27.05655163  *  26.44798518  *  22.57094081  *
    28       H         24.39770927  *  26.42499569  *  22.66163472  *
    29       C         25.06059884  *  22.98183698  *  22.56936339  *
    30       C         24.31406522  *  24.30695112  *  22.63885342  *
 


          CARTESIAN COORDINATES 

    NO.       ATOM           X           Y           Z

     1         C         18.5095     19.5139     22.3516
     2         C         19.9377     19.4506     22.2995
     3         C         20.6792     20.6721     22.4336
     4         C         19.9552     21.9554     22.4508
     5         C         18.4860     21.9711     22.3590
     6         C         17.7919     20.7659     22.3597
     7         C         22.0797     20.6382     22.5305
     8         C         20.7456     23.1771     22.5178
     9         C         22.1669     23.1226     22.5715
    10         C         22.8653     21.8149     22.6202
    11         C         24.3360     21.7896     22.6650
    12         H         24.7922     20.8167     22.4606
    13         C         22.9117     24.3568     22.5680
    14         H         22.6481     19.6880     22.5726
    15         H         18.0030     18.5305     22.4221
    16         H         20.4694     18.4689     22.2513
    17         H         17.9810     22.9123     22.3521
    18         H         16.6862     20.7844     22.3585
    19         H         20.2107     24.1219     22.5661
    20         H         22.4445     25.3118     22.4470
    21         C         26.4884     23.0667     22.4714
    22         C         27.1534     24.2663     22.4341
    23         C         26.4422     25.5784     22.5621
    24         C         25.0775     25.5838     22.6460
    25         H         27.0363     22.0972     22.4681
    26         H         28.2644     24.2514     22.2872
    27         H         27.0566     26.4480     22.5709
    28         H         24.3977     26.4250     22.6616
    29         C         25.0606     22.9818     22.5694
    30         C         24.3141     24.3070     22.6389

           Empirical Formula: C18 H12  =    30 atoms



      MOLECULAR POINT GROUP   :   C1  


      RHF CALCULATION, NO. OF DOUBLY OCCUPIED LEVELS = 42

 WARNING: INDO only performs single-point calculations
  SCF CRITERION =    0.1000E-09

 Summary of symmetry occupancy in each shell:

 SHELL     
    1   42
    v   42
 TOTAL  84




    ROOT NO.    1           2           3           4           5           6

           -44.21292   -42.61656   -40.04469   -36.61485   -35.82169   -34.23378
  
  
  S  C   1   0.12955    -0.21132    -0.26298    -0.22793     0.08083     0.12761
 PX  C   1   0.03434    -0.04866    -0.04114     0.00432     0.03654     0.08923
 PY  C   1   0.04669    -0.07321    -0.08366    -0.06639    -0.00912    -0.04514
 PZ  C   1   0.00062    -0.00076    -0.00040     0.00024    -0.00009    -0.00051
  
  S  C   2   0.16571    -0.23204    -0.20864    -0.05900     0.15512     0.30680
 PX  C   2  -0.00218     0.02498     0.07252     0.11408     0.01946     0.03991
 PY  C   2   0.06737    -0.08684    -0.06063     0.00571     0.01631     0.02628
 PZ  C   2   0.00772    -0.01007    -0.00719     0.00110     0.00612     0.01151
  
  S  C   3   0.29063    -0.29271    -0.06427     0.20819     0.11300     0.21908
 PX  C   3   0.00428     0.05307     0.14110     0.14511     0.04454     0.05079
 PY  C   3   0.05124    -0.01959     0.06317     0.07409    -0.09368    -0.15470
 PZ  C   3   0.00230     0.00191     0.01026     0.01106    -0.00118    -0.00379
  
  S  C   4   0.27627    -0.27967    -0.07177     0.12300    -0.16902    -0.23094
 PX  C   4   0.04865     0.00781     0.12912     0.16351    -0.00140     0.06531
 PY  C   4  -0.03354     0.06479     0.08268     0.03173    -0.10109    -0.13307
 PZ  C   4  -0.00001     0.00366     0.00914     0.00814    -0.00225    -0.00025
  
  S  C   5   0.15814    -0.22774    -0.22523    -0.16023    -0.12195    -0.28853
 PX  C   5   0.04773    -0.05133    -0.01097     0.04688    -0.03632    -0.03333
 PY  C   5  -0.04017     0.07050     0.09546     0.08673    -0.03216    -0.02666
 PZ  C   5   0.00343    -0.00416    -0.00234     0.00041    -0.00397    -0.00669
  
  S  C   6   0.12904    -0.21230    -0.27030    -0.26508    -0.01373    -0.11741
 PX  C   6   0.05730    -0.08770    -0.09406    -0.05889     0.00256    -0.00442
 PY  C   6   0.00507    -0.00493     0.00170     0.00746    -0.04215    -0.09792
 PZ  C   6   0.00054    -0.00063    -0.00018     0.00058    -0.00070    -0.00121
  
  S  C   7   0.25263    -0.13750     0.15782     0.27751     0.22837     0.20800
 PX  C   7  -0.03621     0.07294     0.04154    -0.08060     0.04014    -0.06497
 PY  C   7   0.07891    -0.01568     0.08791     0.05820    -0.00820    -0.05298
 PZ  C   7  -0.00094     0.00353     0.00447    -0.00223     0.00131    -0.00544
  
  S  C   8   0.24041    -0.11979     0.15665     0.15641    -0.31110    -0.25197
 PX  C   8   0.05057     0.02424     0.09540     0.00320    -0.02709     0.05807
 PY  C   8  -0.06973     0.06542    -0.01592    -0.09978    -0.00442     0.03947
 PZ  C   8   0.00033     0.00229     0.00389    -0.00111    -0.00138     0.00215
  
  S  C   9   0.32790     0.01439     0.30356    -0.04432    -0.21510    -0.05699
 PX  C   9   0.01891     0.08605     0.01606    -0.17210     0.09681     0.08687
 PY  C   9  -0.04663     0.04822    -0.04028    -0.12393    -0.11743     0.02189
 PZ  C   9  -0.00143     0.00253    -0.00032    -0.00519     0.00463     0.00240
  
  S  C  10   0.32307     0.00730     0.29894     0.03031     0.21033     0.02096
 PX  C  10  -0.03489     0.08529    -0.02960    -0.17855     0.10592    -0.02809
 PY  C  10   0.04295     0.04883     0.03786    -0.12082    -0.10065    -0.05033
 PZ  C  10  -0.00868     0.00292    -0.00688    -0.00803    -0.00312    -0.00128
  
  S  C  11   0.22478     0.14431     0.14017    -0.18731     0.36080    -0.12217
 PX  C  11  -0.04477     0.02179    -0.08969     0.00650     0.00035    -0.07302
 PY  C  11   0.06479     0.07208     0.01007    -0.09939     0.01974    -0.03900
 PZ  C  11  -0.01110    -0.00705    -0.00642     0.00791    -0.02081     0.00850
  
  S  H  12   0.07166     0.04199     0.04445    -0.04176     0.17145    -0.05676
  
  S  C  13   0.23635     0.15350     0.14748    -0.27681    -0.28955     0.16163
 PX  C  13   0.02971     0.07314    -0.04150    -0.07405     0.02265     0.09532
 PY  C  13  -0.07331    -0.01762    -0.08556     0.06046    -0.01780     0.05286
 PZ  C  13   0.00069     0.00144     0.00039    -0.00351     0.00221     0.00212
  
  S  H  14   0.07803    -0.03961     0.04778     0.08455     0.12880     0.10702
  
  S  H  15   0.03300    -0.05676    -0.07822    -0.07974     0.03399     0.06051
  
  S  H  16   0.04893    -0.06587    -0.05399    -0.00183     0.07348     0.14615
  
  S  H  17   0.04894    -0.06824    -0.06452    -0.05055    -0.06849    -0.14907
  
  S  H  18   0.03282    -0.05714    -0.08122    -0.09627    -0.00805    -0.05467
  
  S  H  19   0.07443    -0.03543     0.04468     0.02841    -0.15041    -0.12136
  
  S  H  20   0.07723     0.05177     0.04178    -0.09075    -0.16160     0.08476
  
  S  C  21   0.15100     0.24876    -0.21931     0.13768     0.19320    -0.27027
 PX  C  21  -0.04836    -0.06084     0.01396     0.05123    -0.05533     0.02284
 PY  C  21   0.03254     0.06823    -0.08972     0.09227    -0.04552     0.01138
 PZ  C  21   0.00409     0.00612    -0.00352    -0.00156     0.00454    -0.00318
  
  S  C  22   0.11785     0.22293    -0.25950     0.25940     0.02872    -0.13106
 PX  C  22  -0.05172    -0.09098     0.08929    -0.05765     0.00050     0.00959
 PY  C  22  -0.00670    -0.00828    -0.00065     0.01517    -0.06912     0.09212
 PZ  C  22   0.00453     0.00832    -0.00884     0.00669    -0.00149     0.00086
  
  S  C  23   0.11601     0.21973    -0.25644     0.24650    -0.12637     0.10137
 PX  C  23  -0.03126    -0.05191     0.04312    -0.00583     0.05624    -0.08002
 PY  C  23  -0.04097    -0.07420     0.07793    -0.06201    -0.01281     0.04024
 PZ  C  23  -0.00039    -0.00088     0.00153    -0.00294    -0.00265     0.00550
  
  S  C  24   0.14983     0.24536    -0.21257     0.09341    -0.23125     0.26471
 PX  C  24   0.00311     0.02828    -0.07309     0.12076     0.02804    -0.04605
 PY  C  24  -0.05563    -0.08387     0.05645    -0.00041     0.01570    -0.01424
 PZ  C  24  -0.00430    -0.00740     0.00731    -0.00552     0.00394    -0.00300
  
  S  H  25   0.04588     0.07301    -0.06018     0.03655     0.10138    -0.12936
  
  S  H  26   0.02960     0.05929    -0.07703     0.09275     0.01411    -0.05775
  
  S  H  27   0.03096     0.06210    -0.08092     0.09356    -0.05085     0.04326
  
  S  H  28   0.05171     0.07843    -0.05650     0.00318    -0.12214     0.14298
  
  S  C  29   0.25620     0.29981    -0.06848    -0.14507     0.25358    -0.18057
 PX  C  29  -0.04252     0.00940    -0.12233     0.15543     0.01653    -0.08894
 PY  C  29   0.02304     0.05929    -0.08051     0.05028    -0.12628     0.08189
 PZ  C  29   0.00223     0.00102     0.00426    -0.00854     0.00045     0.00342
  
  S  C  30   0.26053     0.30285    -0.06362    -0.19402    -0.15606     0.19923
 PX  C  30  -0.00822     0.04981    -0.13375     0.14907     0.06971    -0.05987
 PY  C  30  -0.04554    -0.01979    -0.06173     0.08278    -0.13415     0.12359
 PZ  C  30  -0.00748    -0.00859     0.00190     0.00455     0.00330    -0.00257




    ROOT NO.    7           8           9          10          11          12

           -31.87664   -31.04838   -28.83174   -28.02623   -26.93729   -26.05110
  
  
  S  C   1   0.11557     0.30649    -0.15414     0.27939     0.00150     0.19235
 PX  C   1   0.11816    -0.05754    -0.12224    -0.13967     0.04387     0.07634
 PY  C   1  -0.07274     0.00444     0.09158    -0.02530    -0.08021    -0.08697
 PZ  C   1  -0.00130    -0.00041     0.00236     0.00171    -0.00151    -0.00154
  
  S  C   2   0.28679     0.02553    -0.18056    -0.10550     0.13242     0.00498
 PX  C   2  -0.00350    -0.14107     0.11794    -0.12668     0.04333    -0.21553
 PY  C   2   0.01033    -0.08309     0.04061    -0.10227    -0.09175    -0.06381
 PZ  C   2   0.00825    -0.00468     0.00013    -0.00709    -0.00052    -0.00578
  
  S  C   3   0.13349    -0.22122     0.06784    -0.13403    -0.11151    -0.15031
 PX  C   3  -0.06448     0.02246     0.16011     0.12558     0.05404    -0.12356
 PY  C   3  -0.09177    -0.03303    -0.01276     0.10268    -0.17473     0.14985
 PZ  C   3  -0.00953     0.00232     0.01053     0.01608    -0.00471     0.00203
  
  S  C   4  -0.03268    -0.27334    -0.14081    -0.08888    -0.07076     0.21998
 PX  C   4   0.10058     0.03011    -0.03648     0.16810    -0.11343    -0.03152
 PY  C   4  -0.02000     0.02233    -0.08471     0.09810     0.17240     0.05879
 PZ  C   4   0.00291     0.00533    -0.00207     0.01482    -0.00014    -0.00136
  
  S  C   5  -0.27050    -0.11411     0.15021    -0.17361     0.10324    -0.05775
 PX  C   5   0.05371    -0.13016    -0.15156    -0.09301    -0.01149     0.21396
 PY  C   5   0.02597    -0.07648    -0.07190    -0.02915     0.11125     0.07113
 PZ  C   5  -0.00252    -0.00685    -0.00369    -0.00451     0.00233     0.00763
  
  S  C   6  -0.20940     0.22480     0.23072     0.19482    -0.05219    -0.20612
 PX  C   6   0.00827    -0.02066    -0.04676    -0.07695    -0.03048     0.09108
 PY  C   6  -0.11016    -0.11481     0.11347    -0.16608     0.04579    -0.12486
 PZ  C   6  -0.00056    -0.00251    -0.00043    -0.00199     0.00004     0.00160
  
  S  C   7  -0.15875    -0.01414     0.26458     0.08129     0.14781    -0.06608
 PX  C   7  -0.15239     0.12302    -0.02892     0.03293     0.13312     0.19175
 PY  C   7  -0.07978     0.06921    -0.00828     0.10040    -0.14642     0.13510
 PZ  C   7  -0.01317     0.01076     0.00039     0.00779     0.00464     0.01881
  
  S  C   8   0.14740     0.02737    -0.21298     0.16140     0.19131    -0.02405
 PX  C   8   0.08834     0.17755     0.05762     0.06172    -0.07872    -0.17689
 PY  C   8   0.05060     0.08483     0.02556    -0.04943     0.16994    -0.12941
 PZ  C   8   0.00426     0.01025     0.00148     0.00421     0.00158    -0.00992
  
  S  C   9   0.15782     0.28160    -0.01207    -0.01134    -0.09959    -0.15636
 PX  C   9  -0.06739     0.00248     0.07496    -0.19575    -0.12350     0.07389
 PY  C   9   0.13994     0.00044     0.03627    -0.10979     0.20226    -0.13579
 PZ  C   9  -0.00415     0.00130     0.00101    -0.00551    -0.00737     0.00456
  
  S  C  10  -0.26507     0.20372     0.01825     0.00388    -0.06460     0.19700
 PX  C  10  -0.06118    -0.02847    -0.13171    -0.15915     0.13065     0.05369
 PY  C  10   0.12200     0.04804    -0.08956    -0.09172    -0.22407    -0.07375
 PZ  C  10   0.00262    -0.00143    -0.00535    -0.00732     0.00140     0.00232
  
  S  C  11  -0.16742    -0.03045    -0.24901    -0.08057     0.20001     0.00491
 PX  C  11   0.13759    -0.12509    -0.04357     0.09087     0.05187    -0.18765
 PY  C  11   0.07519    -0.06093    -0.05522    -0.03468    -0.18618    -0.10011
 PZ  C  11   0.00697     0.00322     0.01238     0.00004    -0.01975     0.00331
  
  S  H  12  -0.08789    -0.01460    -0.10078     0.00039     0.22541     0.00804
  
  S  C  13   0.16336     0.02870     0.21273    -0.15693     0.15526     0.00366
 PX  C  13  -0.08497    -0.16272     0.05969     0.00881    -0.11001     0.19294
 PY  C  13  -0.04996    -0.10684     0.05319     0.10070     0.16327     0.10330
 PZ  C  13  -0.00370    -0.00344    -0.00091    -0.00182    -0.01021     0.00646
  
  S  H  14  -0.08231    -0.00500     0.11970    -0.00052     0.20196    -0.04356
  
  S  H  15   0.06154     0.16149    -0.09071     0.18865     0.03120     0.12294
  
  S  H  16   0.13012     0.01554    -0.07348    -0.03534     0.13204    -0.02690
  
  S  H  17  -0.13472    -0.06035     0.07799    -0.07734     0.12114    -0.05407
  
  S  H  18  -0.10705     0.11971     0.14204     0.13949    -0.00792    -0.16087
  
  S  H  19   0.07119     0.00496    -0.10452     0.03641     0.21800    -0.02971
  
  S  H  20   0.07484    -0.00079     0.11569    -0.02558     0.20820     0.00672
  
  S  C  21   0.27628    -0.00076     0.20901     0.10981     0.11155     0.04374
 PX  C  21   0.00099     0.14087     0.12004    -0.14786     0.06245     0.19700
 PY  C  21   0.00161     0.08537     0.07368    -0.06390    -0.09843     0.10385
 PZ  C  21   0.00115    -0.00993    -0.00923     0.01174    -0.00483    -0.01654
  
  S  C  22   0.10598     0.27947     0.17071    -0.26644     0.00612     0.20069
 PX  C  22   0.00030     0.02531     0.02152    -0.09261     0.05579     0.07019
 PY  C  22  -0.14417     0.05805    -0.17659    -0.11132    -0.06182    -0.12139
 PZ  C  22  -0.00393     0.00031    -0.00825     0.00496    -0.00683    -0.01249
  
  S  C  23  -0.22400     0.22768    -0.25860    -0.20160    -0.01916    -0.18743
 PX  C  23   0.08237     0.09921     0.06769    -0.18283    -0.01782     0.05492
 PY  C  23  -0.05299    -0.03035    -0.08841     0.00932     0.06262    -0.08863
 PZ  C  23  -0.00663    -0.00884    -0.00898     0.01435     0.00257    -0.00975
  
  S  C  24  -0.25807    -0.09874    -0.13700     0.18382     0.10602    -0.01447
 PX  C  24  -0.05899     0.14048    -0.16567    -0.09104    -0.07935    -0.18657
 PY  C  24  -0.02750     0.06642    -0.07495    -0.06483     0.08842    -0.07130
 PZ  C  24   0.00402    -0.00377     0.00340     0.00286     0.00163     0.00352
  
  S  H  25   0.13016    -0.00345     0.09597     0.04438     0.13197     0.02571
  
  S  H  26   0.05221     0.14809     0.09759    -0.18376     0.03662     0.14429
  
  S  H  27  -0.11011     0.13231    -0.15121    -0.16037     0.01390    -0.12238
  
  S  H  28  -0.11580    -0.06896    -0.03534     0.09474     0.13662     0.03243
  
  S  C  29   0.11701    -0.22093    -0.11566     0.12103    -0.10665    -0.19183
 PX  C  29   0.10935    -0.00202     0.09486     0.15973     0.11148    -0.04965
 PY  C  29   0.02004    -0.01940     0.12650     0.05370    -0.17956     0.07769
 PZ  C  29  -0.00562    -0.00447    -0.01123    -0.00564    -0.01147    -0.00384
  
  S  C  30  -0.01597    -0.24477     0.12161     0.08723    -0.12131     0.14449
 PX  C  30  -0.04898    -0.03660    -0.10859     0.16987    -0.08103    -0.08162
 PY  C  30  -0.08664    -0.02511     0.05254     0.11013     0.19139     0.11002
 PZ  C  30  -0.00402     0.00316    -0.00710     0.00177     0.00247    -0.00202




    ROOT NO.   13          14          15          16          17          18

           -25.19125   -23.73998   -22.77058   -21.64584   -20.46826   -19.20874
  
  
  S  C   1   0.02065     0.12575    -0.00605     0.16072    -0.05553    -0.02790
 PX  C   1   0.05306    -0.23659    -0.00192     0.01055     0.20135     0.17289
 PY  C   1  -0.16268    -0.00821     0.20654    -0.11810    -0.12041     0.20126
 PZ  C   1  -0.00264     0.00846     0.00138     0.00285    -0.01131    -0.01300
  
  S  C   2   0.18052    -0.17356    -0.12054    -0.11266     0.11955     0.05337
 PX  C   2   0.04526     0.04722    -0.05564    -0.18045    -0.11204    -0.11302
 PY  C   2  -0.18526    -0.00932     0.20278    -0.07906    -0.12714     0.06039
 PZ  C   2  -0.00460     0.00149     0.00843    -0.00201    -0.01188    -0.00006
  
  S  C   3  -0.14845     0.09038     0.01020    -0.09929    -0.03170    -0.14793
 PX  C   3   0.12821     0.15732    -0.15604     0.08770    -0.03059    -0.03583
 PY  C   3  -0.17781     0.08034     0.00623     0.13243     0.12843    -0.09993
 PZ  C   3  -0.00014     0.01583    -0.00647     0.02098     0.00129    -0.00024
  
  S  C   4  -0.08683     0.10257     0.01552     0.08923    -0.05988    -0.14984
 PX  C   4  -0.10040     0.15546    -0.08061    -0.15370     0.12254    -0.06098
 PY  C   4   0.24203     0.10228    -0.13701    -0.02290    -0.09503     0.04242
 PZ  C   4   0.00390     0.01241    -0.00871    -0.00844     0.00154     0.00587
  
  S  C   5   0.16797    -0.17620    -0.11554     0.12040     0.09973    -0.00183
 PX  C   5  -0.06110     0.01762     0.14260     0.14847    -0.19969    -0.02316
 PY  C   5   0.18418     0.03415    -0.17375     0.09172    -0.02397    -0.18857
 PZ  C   5   0.00199     0.00210     0.00252     0.00685    -0.01062    -0.00238
  
  S  C   6  -0.05956     0.13315     0.00712    -0.16702    -0.03778     0.02639
 PX  C   6  -0.08016    -0.13416     0.16929     0.12244    -0.01375     0.22300
 PY  C   6   0.08515    -0.19914    -0.10056    -0.04148     0.24030     0.06091
 PZ  C   6  -0.00035     0.00131     0.00100     0.00310    -0.00503    -0.00515
  
  S  C   7   0.12068     0.10840     0.07221     0.20410    -0.09193     0.11586
 PX  C   7   0.05821    -0.13231     0.18305     0.09499     0.00889     0.16515
 PY  C   7  -0.09233    -0.09197    -0.05758     0.04805     0.20441     0.01063
 PZ  C   7   0.00300    -0.01087     0.01427     0.01530     0.00201     0.02108
  
  S  C   8   0.12204     0.11625     0.06725    -0.20094    -0.05876     0.16761
 PX  C   8  -0.11369    -0.17885     0.05765    -0.04043     0.20213     0.06103
 PY  C   8   0.06333    -0.06161     0.17442    -0.04484    -0.10407     0.12630
 PZ  C   8   0.00078    -0.00840     0.00562    -0.00843    -0.00014     0.01898
  
  S  C   9  -0.01659    -0.24107    -0.02347    -0.01346     0.00095    -0.01208
 PX  C   9   0.02248    -0.03876    -0.10372     0.13950    -0.18797    -0.15946
 PY  C   9  -0.00918     0.07857     0.21299     0.08133    -0.08780    -0.10992
 PZ  C   9   0.00438    -0.00608    -0.00825    -0.00229    -0.01434     0.00874
  
  S  C  10   0.03682    -0.21699    -0.01694    -0.00059    -0.00748     0.02420
 PX  C  10   0.00839     0.05222     0.11508    -0.19207    -0.13643    -0.15221
 PY  C  10  -0.01607    -0.09077    -0.21074    -0.11798    -0.08006    -0.07933
 PZ  C  10   0.00439    -0.00110     0.00400    -0.01109    -0.01540     0.00121
  
  S  C  11  -0.14581     0.09420     0.04826    -0.20957     0.10091    -0.14685
 PX  C  11  -0.12135     0.12417    -0.07743     0.08554     0.17376     0.06596
 PY  C  11   0.05290     0.06439    -0.16533     0.03541    -0.11789     0.14260
 PZ  C  11   0.01699    -0.00629    -0.00393     0.00314    -0.02083     0.01476
  
  S  H  12  -0.13716     0.04751     0.10309    -0.09777     0.17235    -0.14798
  
  S  C  13  -0.11528     0.09778     0.06281     0.21492     0.05928    -0.15963
 PX  C  13   0.04414     0.14764    -0.17089    -0.05139    -0.00497     0.16402
 PY  C  13  -0.10353     0.09189     0.02180     0.00216     0.22676     0.02015
 PZ  C  13   0.00511     0.00099    -0.01446    -0.01063    -0.01617     0.01971
  
  S  H  14   0.12975     0.06398     0.13158     0.10110    -0.15912     0.10884
  
  S  H  15   0.08499     0.13935    -0.12419     0.15317    -0.01965    -0.20945
  
  S  H  16   0.20965    -0.06777    -0.19319    -0.06424     0.09904    -0.04605
  
  S  H  17   0.21103    -0.07711    -0.20462     0.06640     0.10146    -0.10952
  
  S  H  18   0.01977     0.15301    -0.10964    -0.17237    -0.00755    -0.15419
  
  S  H  19   0.13494     0.08179     0.11379    -0.11005    -0.15772     0.14369
  
  S  H  20  -0.13527     0.05997     0.09210     0.12184     0.16910    -0.12105
  
  S  C  21  -0.12911    -0.17772    -0.09275     0.11366    -0.13311    -0.02601
 PX  C  21  -0.07952    -0.01372    -0.12823    -0.17874    -0.18353    -0.03832
 PY  C  21   0.17490    -0.00266     0.16494    -0.14148     0.01250    -0.16209
 PZ  C  21   0.00535    -0.00009     0.00839     0.01449     0.01195     0.00378
  
  S  C  22   0.01815     0.13778    -0.00184    -0.17494     0.07528    -0.00044
 PX  C  22  -0.10569     0.11574    -0.17247    -0.09035    -0.01695     0.23860
 PY  C  22   0.05668     0.19009     0.07661     0.08171     0.24650     0.07352
 PZ  C  22   0.01060    -0.00595     0.01794     0.01561     0.00751    -0.02153
  
  S  C  23  -0.03934     0.10307    -0.01582     0.18134     0.01843    -0.00398
 PX  C  23   0.01176     0.24601    -0.02180     0.06128     0.21090     0.21560
 PY  C  23  -0.14586    -0.01535    -0.18898     0.13732    -0.17312     0.17180
 PZ  C  23  -0.00582    -0.01970    -0.00626     0.00444    -0.02615    -0.00657
  
  S  C  24  -0.13406    -0.20085    -0.10115    -0.13938    -0.12587    -0.02500
 PX  C  24   0.06118    -0.04376     0.08104     0.14746    -0.12644    -0.19886
 PY  C  24  -0.17769    -0.03249    -0.19025     0.07149    -0.17989     0.05648
 PZ  C  24  -0.00324    -0.00116    -0.00794    -0.00709    -0.00474     0.01528
  
  S  H  25  -0.18940    -0.09218    -0.18227     0.07689    -0.13534     0.07004
  
  S  H  26  -0.05677     0.14366    -0.11658    -0.15376     0.02525     0.18079
  
  S  H  27  -0.08966     0.13926    -0.11907     0.19853    -0.00302     0.19851
  
  S  H  28  -0.18807    -0.09983    -0.18101    -0.08985    -0.10006     0.09937
  
  S  C  29   0.07526     0.09784     0.00398     0.10316     0.04614     0.14906
 PX  C  29  -0.07999    -0.15627     0.06117     0.18409     0.09783    -0.04985
 PY  C  29   0.25679    -0.05580     0.15441     0.02039    -0.07602     0.02704
 PZ  C  29   0.00837     0.01302    -0.00540    -0.01612    -0.00693     0.01471
  
  S  C  30   0.16009     0.12641     0.02088    -0.07064     0.04675     0.15604
 PX  C  30   0.14386    -0.13622     0.15746    -0.11954     0.02221    -0.00527
 PY  C  30  -0.16136    -0.08761    -0.02076    -0.11190     0.14918    -0.04924
 PZ  C  30  -0.00499    -0.00595    -0.00782    -0.01313    -0.00700     0.01164




    ROOT NO.   19          20          21          22          23          24

           -18.42595   -17.28790   -17.05834   -16.75618   -15.97529   -15.28401
  
  
  S  C   1  -0.16906    -0.01823     0.02733    -0.11535     0.02684     0.06104
 PX  C   1   0.07048     0.19593     0.06263    -0.02596     0.12300     0.10866
 PY  C   1   0.11485    -0.18528    -0.03635     0.04119     0.14637     0.14064
 PZ  C   1  -0.01501    -0.00716     0.00169    -0.01274    -0.01970    -0.02223
  
  S  C   2   0.17917    -0.01240    -0.00097     0.06625     0.00528     0.01713
 PX  C   2   0.10815    -0.20476    -0.07694     0.10245    -0.12708    -0.11617
 PY  C   2  -0.05171    -0.10745     0.12519    -0.28999    -0.12628     0.12934
 PZ  C   2  -0.01745    -0.00444     0.01342    -0.03516    -0.01185    -0.00335
  
  S  C   3  -0.04397     0.02474     0.12283    -0.17534    -0.08449    -0.03032
 PX  C   3  -0.17280    -0.04928     0.00011    -0.02477     0.24623     0.03391
 PY  C   3  -0.03857     0.27400    -0.00591     0.09969     0.00911    -0.09494
 PZ  C   3  -0.02620     0.02091     0.00509    -0.00521     0.02808    -0.02333
  
  S  C   4   0.07277     0.04421    -0.10743     0.20218    -0.07719    -0.05786
 PX  C   4   0.14219     0.22296     0.06388    -0.06243     0.04233     0.13406
 PY  C   4   0.09845    -0.16705    -0.07652     0.06506     0.15536     0.17356
 PZ  C   4   0.00772     0.00976     0.00457    -0.00677     0.02200    -0.01136
  
  S  C   5  -0.16336    -0.01053    -0.01187    -0.05099     0.00801    -0.00471
 PX  C   5  -0.02922    -0.20623    -0.11785     0.18861    -0.07714    -0.14308
 PY  C   5  -0.09765    -0.11251     0.09245    -0.20818    -0.21391     0.08903
 PZ  C   5  -0.00109    -0.00886    -0.00549     0.01067    -0.00112    -0.02697
  
  S  C   6   0.15726    -0.01067    -0.03152     0.10379     0.05802    -0.00306
 PX  C   6  -0.18956    -0.06269    -0.04624    -0.04474     0.25880     0.08752
 PY  C   6   0.02185     0.26541     0.01786     0.03224     0.08751    -0.05887
 PZ  C   6  -0.00512    -0.00355    -0.00132     0.00050    -0.00883    -0.02227
  
  S  C   7  -0.12551     0.05000    -0.01927     0.04514     0.08479     0.00600
 PX  C   7   0.14432     0.08091    -0.07266     0.14342    -0.16859    -0.01827
 PY  C   7   0.09880     0.00588     0.22189    -0.10532     0.04067    -0.10022
 PZ  C   7   0.00761     0.01398     0.00679     0.00715    -0.00753    -0.03039
  
  S  C   8   0.08264     0.04078     0.01942    -0.06495     0.06669     0.04786
 PX  C   8  -0.18571     0.09133    -0.14108     0.01985    -0.15451    -0.01584
 PY  C   8  -0.07919    -0.01814     0.20827    -0.19191    -0.01972    -0.19434
 PZ  C   8  -0.00746    -0.00117     0.00617    -0.01897     0.00423    -0.03155
  
  S  C   9  -0.12871    -0.09431    -0.19846     0.01898    -0.10572     0.02951
 PX  C   9   0.06137    -0.13562     0.03348     0.01625     0.06429    -0.00367
 PY  C   9  -0.08250     0.23893    -0.05317     0.03275    -0.10582    -0.04860
 PZ  C   9   0.00228    -0.01535     0.00149    -0.01476     0.00440    -0.03671
  
  S  C  10   0.15248    -0.14835     0.18047    -0.02401    -0.03928    -0.09111
 PX  C  10   0.06229     0.10422     0.07114    -0.02317    -0.09320    -0.02818
 PY  C  10  -0.05118    -0.22857    -0.08652    -0.01107     0.05991     0.07575
 PZ  C  10   0.00416     0.00196     0.01480    -0.00328    -0.00558    -0.04346
  
  S  C  11  -0.07705     0.02555    -0.02603    -0.03734     0.06492     0.03623
 PX  C  11  -0.18477    -0.04081    -0.17646     0.02465     0.14231     0.07536
 PY  C  11  -0.10397    -0.03879     0.25895     0.17108     0.15024    -0.15388
 PZ  C  11   0.00270     0.00331     0.03439     0.00879     0.00139    -0.05828
  
  S  H  12  -0.02843     0.03566    -0.28452    -0.13776    -0.02653     0.17377
  
  S  C  13   0.09482     0.02416     0.03917     0.04694     0.08659     0.02865
 PX  C  13   0.14097    -0.00107    -0.16966    -0.17242     0.10403     0.16079
 PY  C  13   0.10138    -0.10526     0.27821     0.07398     0.10311    -0.04617
 PZ  C  13  -0.00329     0.00043    -0.03524    -0.02801    -0.00385    -0.02235
  
  S  H  14  -0.06882     0.06236    -0.21735     0.16536    -0.05660     0.07724
  
  S  H  15  -0.19349     0.04992     0.01328    -0.07522    -0.14613    -0.12843
  
  S  H  16   0.16524    -0.00688    -0.13175     0.29740     0.04613    -0.13879
  
  S  H  17  -0.14026    -0.00928     0.11489    -0.26186    -0.12053     0.12515
  
  S  H  18   0.23042     0.04872     0.02378     0.08938    -0.19404    -0.08033
  
  S  H  19   0.05593    -0.03042     0.23319    -0.18737     0.08929    -0.11582
  
  S  H  20   0.06646    -0.06595     0.30688     0.15080     0.08278    -0.07302
  
  S  C  21   0.16339    -0.00330    -0.00519    -0.06902    -0.01868     0.03392
 PX  C  21  -0.02936     0.19477    -0.07465    -0.11655     0.18446    -0.09438
 PY  C  21  -0.08446     0.06230     0.15033     0.15392     0.02054     0.36292
 PZ  C  21   0.00270    -0.01618     0.00356     0.00017    -0.00101    -0.03493
  
  S  C  22  -0.15601    -0.03423     0.04166     0.09818     0.02620     0.05892
 PX  C  22  -0.16906     0.08399    -0.01465     0.05392    -0.12727    -0.21626
 PY  C  22  -0.00775    -0.23668    -0.06843    -0.02104    -0.03236    -0.18190
 PZ  C  22   0.02387    -0.01704    -0.00457    -0.01743     0.01950    -0.00852
  
  S  C  23   0.14022    -0.00068    -0.03852    -0.08374     0.06429    -0.02322
 PX  C  23   0.07643    -0.16720     0.00238    -0.03590    -0.25395     0.08846
 PY  C  23   0.12351     0.20584     0.02956    -0.04979    -0.15916     0.08035
 PZ  C  23   0.00483     0.02567    -0.00391    -0.01005     0.01006    -0.02465
  
  S  C  24  -0.15193     0.00263    -0.00219     0.06169     0.00057    -0.04780
 PX  C  24   0.09065     0.17203    -0.02702    -0.04432     0.28075    -0.08210
 PY  C  24  -0.04044     0.09567     0.17996     0.19762    -0.06703     0.28620
 PZ  C  24  -0.00984     0.00117    -0.00351    -0.00278    -0.02020    -0.02483
  
  S  H  25   0.12741     0.03196    -0.15361    -0.20211     0.05715    -0.30095
  
  S  H  26  -0.21352     0.05375     0.00795     0.09516    -0.09829    -0.16244
  
  S  H  27   0.18702     0.05856     0.00030    -0.09593    -0.20319     0.08481
  
  S  H  28  -0.14172    -0.03343     0.14854     0.19488    -0.17910     0.21891
  
  S  C  29  -0.07803     0.01960     0.15393     0.15408    -0.06682     0.00482
 PX  C  29   0.15168    -0.20831    -0.02026    -0.00530    -0.15635     0.09002
 PY  C  29   0.11461     0.16642    -0.01707    -0.05929    -0.21350     0.03986
 PZ  C  29  -0.02600     0.01607     0.01240     0.00368     0.02110    -0.06964
  
  S  C  30   0.04818     0.09158    -0.16769    -0.16975    -0.05302    -0.06251
 PX  C  30  -0.14815     0.00983     0.06677     0.06188    -0.16286    -0.19886
 PY  C  30  -0.02675    -0.24460    -0.10894    -0.08301     0.02983    -0.11364
 PZ  C  30  -0.01814    -0.00368    -0.00893    -0.00852    -0.00564    -0.05656




    ROOT NO.   25          26          27          28          29          30

           -15.06762   -14.95700   -14.81463   -14.33289   -13.55065   -13.49740
  
  
  S  C   1  -0.00038    -0.02836    -0.03968    -0.01602    -0.05268     0.02698
 PX  C   1   0.27451     0.05494     0.03410     0.01039    -0.09047     0.01483
 PY  C   1   0.01201    -0.19850     0.11056     0.12274    -0.10874     0.18608
 PZ  C   1  -0.00818     0.03879    -0.06114     0.10797    -0.04883    -0.20776
  
  S  C   2   0.05189    -0.06035     0.07789     0.04963     0.01980     0.02105
 PX  C   2  -0.24335    -0.07113     0.00155     0.02161     0.11149    -0.04765
 PY  C   2   0.20637    -0.11759    -0.04836    -0.02363     0.05467    -0.12191
 PZ  C   2   0.02931     0.04221    -0.07980     0.14669    -0.07648    -0.22195
  
  S  C   3  -0.02505     0.05516    -0.00124    -0.02067    -0.01056    -0.00310
 PX  C   3  -0.19410     0.07067     0.04134    -0.01156    -0.17680     0.11472
 PY  C   3  -0.00506     0.15046     0.00655    -0.05538    -0.01047     0.12552
 PZ  C   3   0.01547     0.09127    -0.10838     0.25155    -0.12960    -0.22209
  
  S  C   4   0.04545     0.01789    -0.01512    -0.00210    -0.01471     0.00474
 PX  C   4   0.15074    -0.00346    -0.08893    -0.06951    -0.18834     0.10075
 PY  C   4   0.03962    -0.13603    -0.01235     0.02406    -0.19053     0.01226
 PZ  C   4   0.02105     0.07670    -0.09802     0.24217    -0.12025    -0.22041
  
  S  C   5  -0.09989    -0.02424    -0.03569    -0.01206     0.02592    -0.00516
 PX  C   5  -0.09187    -0.01354     0.11084     0.06109     0.17657    -0.05544
 PY  C   5   0.16939    -0.24636     0.07610     0.10972     0.05758     0.10461
 PZ  C   5  -0.00161     0.05154    -0.05010     0.15157    -0.06333    -0.20360
  
  S  C   6  -0.00665     0.01939     0.03110     0.01176    -0.04090     0.01990
 PX  C   6  -0.25922    -0.01183    -0.09527    -0.04259    -0.16011     0.07643
 PY  C   6  -0.01089     0.24709    -0.11552    -0.13341    -0.03108    -0.14070
 PZ  C   6  -0.00402     0.04024    -0.04694     0.11603    -0.05244    -0.19799
  
  S  C   7   0.06718     0.02657     0.01893    -0.00491     0.02365     0.02471
 PX  C   7   0.22427    -0.09350     0.00178    -0.00828     0.20124    -0.06318
 PY  C   7  -0.12988     0.00703     0.32691     0.14167     0.09556     0.07353
 PZ  C   7   0.04600     0.05508    -0.10320     0.24310    -0.05391    -0.11921
  
  S  C   8  -0.00926     0.02061    -0.05683    -0.04205     0.01523    -0.02294
 PX  C   8  -0.11027    -0.19000    -0.15302    -0.00576     0.20454    -0.01491
 PY  C   8  -0.10053     0.23879     0.15106    -0.02044     0.19384    -0.04520
 PZ  C   8   0.00631     0.07782    -0.08581     0.22986    -0.03692    -0.11134
  
  S  C   9   0.02246    -0.00152    -0.01485     0.00274     0.00385    -0.01724
 PX  C   9   0.12183     0.20721     0.18176    -0.00516    -0.19685     0.02588
 PY  C   9   0.04943     0.08901     0.09433     0.02475    -0.08698     0.19533
 PZ  C   9   0.02707     0.09380    -0.11801     0.29411    -0.02704    -0.00386
  
  S  C  10  -0.02453     0.00570     0.01406    -0.00045    -0.01634    -0.02402
 PX  C  10  -0.06838     0.01535    -0.25538    -0.15572    -0.19712     0.10510
 PY  C  10  -0.00237     0.03464    -0.15579    -0.08549    -0.10973    -0.11533
 PZ  C  10   0.02575     0.06665    -0.15931     0.27898    -0.04820     0.00345
  
  S  C  11  -0.07215    -0.00529    -0.05574     0.03479     0.01517     0.03417
 PX  C  11   0.07552    -0.01065     0.21449     0.14090     0.21503    -0.08530
 PY  C  11   0.15381    -0.05423    -0.18446    -0.09602     0.17474     0.02792
 PZ  C  11   0.02400     0.03171    -0.13795     0.20790     0.01753     0.13339
  
  S  H  12  -0.12107     0.02932     0.21179     0.10812    -0.05411    -0.06178
  
  S  C  13   0.04519    -0.02515     0.04622     0.04263    -0.03784     0.01064
 PX  C  13   0.00468     0.09251    -0.00487    -0.01976     0.23458    -0.10537
 PY  C  13  -0.10775    -0.25735    -0.18357    -0.00061     0.05002    -0.13336
 PZ  C  13   0.02777     0.08937    -0.08552     0.22852     0.03856     0.12263
  
  S  H  14   0.22176    -0.03244    -0.23953    -0.10406     0.02375    -0.07929
  
  S  H  15  -0.13065     0.12542    -0.12827    -0.10769     0.10420    -0.16398
  
  S  H  16  -0.23327     0.02834     0.07316     0.04362     0.02295     0.09718
  
  S  H  17   0.11888    -0.19415     0.00060     0.05452    -0.01348     0.10919
  
  S  H  18   0.23195     0.02391     0.10213     0.04442     0.13510    -0.06633
  
  S  H  19  -0.03571     0.26528     0.15139    -0.02171     0.07072    -0.04510
  
  S  H  20  -0.06456    -0.24040    -0.10742     0.00049    -0.08027    -0.07098
  
  S  C  21  -0.03491     0.04544    -0.07909    -0.03849    -0.00027     0.01880
 PX  C  21  -0.05641    -0.13439    -0.10223     0.00267     0.18048     0.05016
 PY  C  21  -0.14698     0.03580     0.00020     0.09357     0.16660    -0.05773
 PZ  C  21   0.01981     0.02982    -0.07894     0.14723     0.05812     0.21129
  
  S  C  22   0.04948     0.04403     0.03575     0.01398     0.04742     0.00122
 PX  C  22   0.04667    -0.14952     0.19611     0.07342    -0.23001    -0.05711
 PY  C  22   0.19742     0.12688    -0.00872    -0.10791    -0.10647     0.07970
 PZ  C  22   0.00617     0.03756    -0.09168     0.10158     0.08999     0.20380
  
  S  C  23  -0.00414    -0.02040    -0.04831    -0.01515     0.04707    -0.00698
 PX  C  23  -0.10257     0.16778    -0.15601    -0.06582     0.00465     0.13404
 PY  C  23  -0.24220    -0.14809     0.01837     0.07849    -0.04246    -0.08540
 PZ  C  23  -0.00614    -0.00480    -0.04593     0.12443     0.05216     0.16993
  
  S  C  24   0.07389     0.03275     0.04922    -0.00452    -0.04140     0.02455
 PX  C  24   0.06671    -0.18875     0.10686     0.07644     0.03749    -0.11968
 PY  C  24  -0.00062     0.11839     0.07151     0.02619     0.05868     0.01631
 PZ  C  24   0.00202     0.03272    -0.06428     0.14404     0.04479     0.20155
  
  S  H  25   0.06876    -0.06360    -0.07962    -0.09112    -0.05637     0.07936
  
  S  H  26   0.06452    -0.11877     0.20729     0.06344    -0.21045    -0.08039
  
  S  H  27  -0.23138    -0.03793    -0.09110     0.01794    -0.01135     0.00217
  
  S  H  28   0.00375     0.19532     0.00702    -0.02490     0.00146     0.09309
  
  S  C  29   0.01941    -0.05207     0.04348     0.01884    -0.00011    -0.02583
 PX  C  29   0.03205     0.17343     0.04010     0.00859    -0.16502    -0.00460
 PY  C  29  -0.17065    -0.06076     0.07556     0.03836    -0.21195     0.01622
 PZ  C  29   0.02202     0.01520    -0.12714     0.23791     0.08217     0.24129
  
  S  C  30  -0.08148    -0.05162     0.01363     0.02756     0.02932    -0.00363
 PX  C  30  -0.07297    -0.12917    -0.01744    -0.01174    -0.21657     0.06777
 PY  C  30   0.07174     0.08272    -0.09524    -0.06831     0.01115     0.00621
 PZ  C  30   0.02305     0.05292    -0.10768     0.23301     0.05538     0.23436




    ROOT NO.   31          32          33          34          35          36

           -13.11817   -12.85396   -12.23639   -11.83876   -11.72416   -11.31387
  
  
  S  C   1  -0.00566     0.00028     0.01115     0.00205    -0.00495     0.01364
 PX  C   1   0.17889     0.24061    -0.05654     0.07187    -0.04846     0.14459
 PY  C   1  -0.17556     0.13918     0.14147    -0.05238     0.00307     0.07866
 PZ  C   1  -0.09808     0.05432    -0.08618    -0.10797     0.27588     0.09433
  
  S  C   2  -0.01132     0.02115    -0.03315     0.02089     0.01264    -0.03367
 PX  C   2  -0.16767    -0.23988     0.00862    -0.06137     0.07466    -0.16726
 PY  C   2   0.13464    -0.12580    -0.19126     0.07600     0.02931    -0.13981
 PZ  C   2  -0.08581     0.08154    -0.08231    -0.06542     0.18935     0.06844
  
  S  C   3  -0.01426    -0.03403     0.01284     0.00122    -0.00333     0.00994
 PX  C   3   0.09167     0.18217    -0.10373     0.15958    -0.06522     0.17032
 PY  C   3  -0.08565     0.09888     0.28713    -0.14448    -0.06514     0.13975
 PZ  C   3  -0.13421     0.14111    -0.00320    -0.02847     0.03690     0.04275
  
  S  C   4   0.02258     0.03683     0.00922     0.00049     0.00595    -0.01834
 PX  C   4  -0.10943    -0.15210     0.15350    -0.13877     0.08620    -0.16416
 PY  C   4   0.10211    -0.03202    -0.26022     0.15633     0.08186    -0.15342
 PZ  C   4  -0.13770     0.09371    -0.00539    -0.04787     0.06599    -0.00239
  
  S  C   5  -0.01643    -0.02641    -0.03162     0.03268    -0.01519     0.01629
 PX  C   5   0.12383     0.17540    -0.12699     0.13205    -0.09731     0.15163
 PY  C   5  -0.14421     0.11960     0.13704    -0.05085    -0.02840     0.09191
 PZ  C   5  -0.10042     0.10138    -0.06278    -0.08563     0.20969     0.09358
  
  S  C   6   0.00073     0.01596     0.00065    -0.00265     0.01329    -0.01128
 PX  C   6  -0.15866    -0.17772     0.06825    -0.07014     0.07047    -0.11021
 PY  C   6   0.18256    -0.12804    -0.14012     0.04460     0.02629    -0.09883
 PZ  C   6  -0.10006     0.08279    -0.07864    -0.11401     0.28415     0.12008
  
  S  C   7   0.02762     0.08272    -0.01809     0.03868     0.01011    -0.00022
 PX  C   7  -0.07577    -0.14220     0.07625    -0.13132     0.08402    -0.17820
 PY  C   7  -0.12493     0.01381    -0.16745     0.12846     0.10411    -0.13868
 PZ  C   7  -0.09173     0.03545     0.03550     0.04337    -0.12622    -0.08589
  
  S  C   8  -0.03086    -0.07314    -0.03849     0.04166     0.01407     0.01758
 PX  C   8  -0.12610     0.03850    -0.06384     0.13458    -0.06339     0.20867
 PY  C   8   0.01899     0.05513     0.16795    -0.11786    -0.08447     0.14024
 PZ  C   8  -0.07269     0.02207     0.05441     0.03495    -0.14230    -0.06623
  
  S  C   9   0.05525     0.04411     0.02119    -0.01202    -0.00552    -0.00506
 PX  C   9   0.15648     0.01782     0.10101    -0.17420     0.06637    -0.20060
 PY  C   9  -0.16703     0.08129    -0.07237     0.21304     0.15626    -0.13790
 PZ  C   9  -0.00863    -0.05243     0.08625     0.11063    -0.28018    -0.14624
  
  S  C  10   0.00008    -0.05926     0.00113     0.01922     0.01128    -0.00437
 PX  C  10  -0.09787     0.00784    -0.00324     0.18856     0.01242     0.21588
 PY  C  10   0.22920     0.00455     0.14139    -0.20711    -0.14213     0.13294
 PZ  C  10  -0.02924    -0.03839     0.06006     0.13253    -0.27572    -0.11643
  
  S  C  11   0.01920     0.05588     0.01150     0.06235    -0.00078     0.00540
 PX  C  11   0.10805     0.04024     0.02229    -0.16521     0.00792    -0.20619
 PY  C  11  -0.08621     0.08767     0.08419     0.13647     0.14170    -0.07564
 PZ  C  11   0.04444    -0.07678     0.00147     0.07402    -0.11803    -0.03972
  
  S  H  12   0.11783    -0.01487    -0.06091    -0.19578    -0.11307    -0.01300
  
  S  C  13  -0.01280    -0.06311    -0.00775     0.04289     0.03328    -0.02343
 PX  C  13  -0.11963    -0.15894     0.02946     0.10658    -0.03193     0.22643
 PY  C  13   0.10689    -0.04857    -0.01238    -0.12775    -0.15165     0.11835
 PZ  C  13   0.04412    -0.09912     0.04473     0.09412    -0.11299    -0.06014
  
  S  H  14   0.07386    -0.03886     0.18388    -0.17859    -0.05718     0.03401
  
  S  H  15   0.05851    -0.23172    -0.09561     0.00347     0.03539    -0.13273
  
  S  H  16  -0.19319     0.00142     0.17252    -0.09672     0.00486     0.02809
  
  S  H  17  -0.18542     0.00664     0.17205    -0.09950     0.01029     0.01901
  
  S  H  18   0.15863     0.18383    -0.06897     0.07026    -0.06793     0.11229
  
  S  H  19   0.05309    -0.00699     0.16639    -0.16305    -0.04939     0.03108
  
  S  H  20   0.12522     0.00722    -0.03648    -0.16880    -0.10184    -0.00122
  
  S  C  21  -0.01931     0.01647     0.01567     0.03872     0.00683     0.02657
 PX  C  21  -0.00889     0.21893    -0.11631    -0.15991    -0.02916    -0.16714
 PY  C  21   0.11853     0.04444     0.15152     0.08079     0.10314    -0.04776
 PZ  C  21   0.12568    -0.10799    -0.08610    -0.12226     0.15319     0.13887
  
  S  C  22  -0.02756    -0.01969    -0.01722    -0.00941     0.00028    -0.00173
 PX  C  22   0.10339    -0.20147     0.07786     0.06158     0.04514     0.12335
 PY  C  22  -0.18344    -0.05878    -0.18020    -0.07869    -0.11815     0.05865
 PZ  C  22   0.10659    -0.05611    -0.10910    -0.17051     0.20477     0.15351
  
  S  C  23  -0.02225     0.00500    -0.01502    -0.00588    -0.01822     0.01358
 PX  C  23  -0.00108     0.20424    -0.05650    -0.07397     0.02666    -0.11058
 PY  C  23   0.20585     0.05127     0.20173     0.10692     0.09547    -0.04904
 PZ  C  23   0.14814    -0.09413    -0.04826    -0.12549     0.23615     0.16989
  
  S  C  24  -0.00737    -0.00443     0.01495     0.01968     0.03946    -0.02325
 PX  C  24   0.00046    -0.21323     0.01991     0.03967    -0.03502     0.14385
 PY  C  24  -0.16475    -0.11926    -0.21644    -0.11907    -0.16081     0.10668
 PZ  C  24   0.13839    -0.08851    -0.04693    -0.09718     0.18040     0.11348
  
  S  H  25  -0.10971     0.08129    -0.18771    -0.14609    -0.11188    -0.03586
  
  S  H  26   0.07700    -0.20092     0.08609     0.08050     0.01922     0.10807
  
  S  H  27   0.15676     0.15614     0.12901     0.04291     0.08971    -0.10016
  
  S  H  28  -0.12502     0.02589    -0.18219    -0.12360    -0.09597    -0.00783
  
  S  C  29  -0.00802    -0.03883    -0.00472    -0.00168     0.00741    -0.00964
 PX  C  29   0.03159    -0.21133     0.12744     0.17838     0.05075     0.18619
 PY  C  29   0.02025    -0.04715    -0.18441    -0.18459    -0.18811     0.07823
 PZ  C  29   0.13544    -0.10162    -0.05900    -0.04852     0.02118     0.01271
  
  S  C  30   0.01952     0.02505    -0.00615    -0.00498    -0.01538     0.00867
 PX  C  30   0.14698     0.20470    -0.02496    -0.14298     0.00900    -0.20905
 PY  C  30   0.08054     0.09205     0.24885     0.21278     0.20715    -0.07049
 PZ  C  30   0.14021    -0.11509    -0.00989    -0.00660     0.03908     0.00889




    ROOT NO.   37          38          39          40          41          42

           -10.62552    -9.88019    -9.58925    -8.30407    -7.97990    -6.74083
  
  
  S  C   1   0.00589    -0.00549     0.00490    -0.00326    -0.00015    -0.00096
 PX  C   1   0.00930    -0.02645    -0.02410     0.01048     0.02650     0.01514
 PY  C   1  -0.00283    -0.01534    -0.02407     0.01086     0.01570     0.00971
 PZ  C   1  -0.05127    -0.17710    -0.34224     0.16505     0.31975     0.19857
  
  S  C   2   0.00598    -0.00275     0.01263    -0.01502    -0.00119    -0.00971
 PX  C   2  -0.01417     0.02372     0.00642     0.00212    -0.01386    -0.00188
 PY  C   2   0.01907     0.00207     0.04477    -0.03489    -0.01394    -0.02167
 PZ  C   2  -0.16652     0.11502    -0.33293     0.36074     0.06263     0.24642
  
  S  C   3  -0.00367     0.00636     0.00424    -0.00119    -0.00737    -0.00782
 PX  C   3   0.02542    -0.03340     0.00233    -0.01206     0.03224     0.00292
 PY  C   3   0.00881    -0.04150    -0.01358    -0.00765     0.02707     0.00845
 PZ  C   3  -0.20664     0.34655    -0.05370     0.14449    -0.30880    -0.11162
  
  S  C   4   0.00622     0.00264     0.00797     0.00704    -0.00384     0.00715
 PX  C   4  -0.01471    -0.00843    -0.02295     0.00229     0.02489    -0.00431
 PY  C   4   0.00262     0.00901     0.00018     0.00096     0.01533    -0.00565
 PZ  C   4   0.17510     0.06235     0.37026     0.00946    -0.36789     0.11673
  
  S  C   5  -0.00253     0.01116    -0.00184     0.00685     0.00055     0.00415
 PX  C   5  -0.00377     0.01835    -0.01027     0.01689     0.00321     0.01183
 PY  C   5   0.00452    -0.00900    -0.00318     0.00067     0.00051     0.00193
 PZ  C   5   0.18677    -0.28743     0.20912    -0.33928    -0.10167    -0.23879
  
  S  C   6  -0.00319    -0.00319    -0.00740     0.00142     0.00564    -0.00025
 PX  C   6  -0.00535    -0.00087    -0.00069    -0.00262     0.00038    -0.00346
 PY  C   6   0.00036     0.00531     0.01057    -0.00698    -0.00388    -0.00589
 PZ  C   6   0.10864    -0.38032    -0.06909    -0.26225     0.21679    -0.17959
  
  S  C   7   0.00971    -0.00751     0.00285     0.00079     0.00797     0.00846
 PX  C   7   0.01739    -0.01412     0.00992     0.01588    -0.00796     0.03294
 PY  C   7   0.00027     0.01167     0.00666     0.00649     0.00191     0.01009
 PZ  C   7  -0.31402     0.29967    -0.08225    -0.20032    -0.00312    -0.37977
  
  S  C   8  -0.00518     0.00569    -0.00506    -0.00301    -0.00189    -0.01026
 PX  C   8   0.00823     0.00811    -0.00518    -0.00243    -0.00754    -0.01392
 PY  C   8  -0.02703    -0.00834    -0.02463    -0.01188    -0.00889    -0.01557
 PZ  C   8   0.30423     0.02338     0.34337     0.18005     0.05333     0.38116
  
  S  C   9  -0.00813    -0.00616     0.00840    -0.00089    -0.00115     0.00880
 PX  C   9  -0.03151    -0.01072    -0.00664    -0.00847    -0.00932     0.00050
 PY  C   9  -0.00071     0.01225     0.02471     0.00556     0.02089     0.00413
 PZ  C   9   0.27453    -0.02436     0.05891     0.13610     0.39549     0.04452
  
  S  C  10  -0.00610     0.00926    -0.00366     0.00100     0.00277    -0.01621
 PX  C  10   0.03613     0.00448     0.01341     0.03308    -0.01688    -0.01230
 PY  C  10   0.00351    -0.02203    -0.01622    -0.00047    -0.00933    -0.00353
 PZ  C  10  -0.24267     0.02120    -0.03597    -0.31533     0.31505    -0.04288
  
  S  C  11  -0.04439    -0.03656     0.00218    -0.03220    -0.00853     0.05346
 PX  C  11  -0.03543    -0.01416    -0.00820    -0.02508     0.00329     0.02127
 PY  C  11   0.02647     0.02711     0.01076     0.01698     0.00760    -0.01826
 PZ  C  11  -0.33251    -0.28378    -0.01415    -0.24099    -0.07665     0.37195
  
  S  H  12   0.00363     0.00110    -0.01414     0.00439     0.00336    -0.02449
  
  S  C  13   0.00788    -0.00100    -0.00238     0.00489     0.00104    -0.00188
 PX  C  13  -0.03831     0.00505     0.02015    -0.02070    -0.00982     0.02797
 PY  C  13   0.04773    -0.00622    -0.03410     0.01612    -0.00710    -0.02666
 PZ  C  13   0.35483    -0.07775    -0.25215     0.23879     0.01358    -0.34744
  
  S  H  14   0.00020    -0.01343    -0.00606    -0.00538    -0.00347    -0.00055
  
  S  H  15  -0.00389     0.01664     0.01516    -0.00498    -0.01075    -0.00422
  
  S  H  16  -0.01518     0.00284    -0.02102     0.01417     0.00411     0.00807
  
  S  H  17   0.00260    -0.01184    -0.00143    -0.00366     0.00035    -0.00116
  
  S  H  18   0.00432    -0.00032    -0.00212     0.00368     0.00077     0.00452
  
  S  H  19  -0.01589    -0.01073    -0.01032    -0.00422    -0.00268     0.00545
  
  S  H  20   0.02555    -0.00042    -0.01575     0.00001    -0.00194    -0.00172
  
  S  C  21   0.00284    -0.00354    -0.00624    -0.00343    -0.01077     0.00620
 PX  C  21   0.00132     0.00088     0.00864     0.01394     0.01502    -0.01571
 PY  C  21  -0.01441    -0.00189     0.00980     0.00760     0.00132    -0.00619
 PZ  C  21  -0.24347    -0.10066     0.32859     0.31923     0.08541    -0.21260
  
  S  C  22   0.00091     0.00517     0.00051    -0.00073     0.00202    -0.00240
 PX  C  22  -0.02690     0.01578     0.05387     0.02673     0.03764    -0.02422
 PY  C  22   0.02026    -0.00111    -0.02388    -0.01535    -0.01412     0.01341
 PZ  C  22  -0.11604     0.16096     0.33515     0.17032     0.29218    -0.19384
  
  S  C  23   0.00680     0.00077    -0.00743    -0.00249    -0.00375    -0.00012
 PX  C  23   0.01234     0.02933    -0.00176    -0.02665     0.01330     0.02005
 PY  C  23  -0.02671    -0.03055     0.01319     0.02602    -0.00653    -0.01550
 PZ  C  23   0.12290     0.39184     0.03674    -0.27923     0.17471     0.19661
  
  S  C  24  -0.00025     0.01259     0.00587    -0.00716     0.00696     0.00579
 PX  C  24   0.01371     0.00944    -0.01437    -0.00966    -0.01125     0.00379
 PY  C  24   0.00859    -0.00761    -0.01456    -0.00189    -0.01043     0.00006
 PZ  C  24   0.23924     0.31073    -0.19766    -0.32013    -0.07786     0.20784
  
  S  H  25   0.01635     0.00024    -0.01087    -0.00519     0.00250     0.00336
  
  S  H  26  -0.01400    -0.00433     0.01395     0.00681     0.00184    -0.00041
  
  S  H  27  -0.01301    -0.00647     0.00973     0.00528     0.00395    -0.00046
  
  S  H  28   0.00650    -0.00166    -0.00722    -0.00396    -0.00121     0.00325
  
  S  C  29   0.01609     0.01873     0.00459     0.00834     0.01862    -0.01960
 PX  C  29  -0.04232    -0.04042     0.01050     0.00880    -0.03811     0.01845
 PY  C  29   0.00222    -0.02149    -0.01353    -0.00458    -0.00680     0.01160
 PZ  C  29  -0.24749    -0.34508     0.00759     0.07654    -0.30374     0.15742
  
  S  C  30   0.00228    -0.00823    -0.01492     0.00027    -0.01700    -0.00536
 PX  C  30   0.00801    -0.00123     0.00407     0.00538     0.01828    -0.00273
 PY  C  30  -0.02622     0.00902     0.03186     0.00392     0.01547     0.00175
 PZ  C  30   0.24697    -0.07911    -0.33715     0.06985    -0.32982    -0.17449




    ROOT NO.   43          44          45          46          47          48

            -1.00016     0.20899     0.29609     1.24448     1.36057     1.80771
  
  
  S  C   1  -0.00514     0.00463     0.01330    -0.01492     0.00507     0.00135
 PX  C   1   0.00805    -0.01682     0.00221     0.01033     0.01399    -0.00015
 PY  C   1   0.00378    -0.01003    -0.00080     0.00957     0.00683    -0.00025
 PZ  C   1   0.19649    -0.33694    -0.12820     0.33549     0.18980    -0.00745
  
  S  C   2   0.01356    -0.01037    -0.02626     0.02399    -0.00914    -0.00021
 PX  C   2  -0.00584     0.00337     0.00125    -0.00333    -0.00314     0.00306
 PY  C   2   0.01605    -0.00972    -0.02888     0.02418    -0.00946    -0.00665
 PZ  C   2  -0.24107     0.12142     0.35835    -0.33236     0.08726     0.15415
  
  S  C   3  -0.00301     0.01412     0.01027    -0.01562     0.00419    -0.00714
 PX  C   3   0.02042    -0.02676     0.00988     0.00285     0.03261     0.01280
 PY  C   3   0.01002    -0.01940     0.00678     0.00352     0.01932     0.01116
 PZ  C   3  -0.11288     0.28328    -0.19155     0.06597    -0.33930    -0.24037
  
  S  C   4  -0.00777    -0.00713     0.00863     0.00279     0.00723     0.00388
 PX  C   4   0.00637     0.02023    -0.00833    -0.01999    -0.01213     0.00788
 PY  C   4   0.00784     0.01329    -0.00581    -0.01773    -0.00293     0.00841
 PZ  C   4  -0.11586    -0.36361     0.04684     0.37915     0.08160    -0.16960
  
  S  C   5   0.01027    -0.00251    -0.01318     0.00277    -0.01140    -0.00608
 PX  C   5   0.01363    -0.00680    -0.01651     0.00777    -0.01064    -0.00630
 PY  C   5  -0.00087    -0.00109     0.00162     0.00082     0.00151     0.00026
 PZ  C   5  -0.23645     0.13905     0.33835    -0.20580     0.25166     0.21615
  
  S  C   6  -0.00162     0.00421     0.00231    -0.00434     0.00161     0.00487
 PX  C   6  -0.00298     0.00269     0.00218    -0.00103     0.00069     0.00113
 PY  C   6  -0.00304     0.00423     0.00354    -0.00472     0.00161     0.00140
 PZ  C   6   0.18260     0.17445    -0.29585    -0.07005    -0.35661    -0.15607
  
  S  C   7  -0.00244    -0.00328    -0.00907     0.00840    -0.01634     0.00671
 PX  C   7  -0.03700     0.00952     0.01498    -0.00073    -0.02825    -0.01869
 PY  C   7  -0.00904     0.00309    -0.00220    -0.00274    -0.01233     0.00729
 PZ  C   7   0.35569    -0.02624    -0.20109    -0.10086     0.25528     0.34328
  
  S  C   8   0.00140     0.00663     0.00486     0.01307     0.00025    -0.02585
 PX  C   8  -0.00700    -0.00047     0.01272     0.01316     0.00748    -0.01150
 PY  C   8  -0.02081    -0.00030     0.01243     0.01816     0.00445    -0.01319
 PZ  C   8   0.37271    -0.06910    -0.17603    -0.34544    -0.02380     0.28154
  
  S  C   9  -0.00441     0.00127    -0.01116    -0.01351    -0.00881     0.01944
 PX  C   9  -0.00517    -0.01400    -0.01040    -0.00333    -0.00524     0.00808
 PY  C   9   0.00891     0.00714     0.01183    -0.00549     0.00931    -0.02945
 PZ  C   9  -0.04005     0.40543     0.10798     0.06828    -0.03469    -0.26571
  
  S  C  10   0.00888     0.00092     0.03116     0.00745     0.03197    -0.05260
 PX  C  10   0.02796     0.02022    -0.00848    -0.00052     0.02128    -0.00998
 PY  C  10  -0.00396    -0.00091    -0.00774     0.00910    -0.00207     0.00259
 PZ  C  10  -0.02439    -0.27698     0.36040     0.05059     0.01607    -0.26050
  
  S  C  11  -0.05129    -0.01280    -0.05203    -0.00906    -0.06217     0.08806
 PX  C  11  -0.02737    -0.00618    -0.00300     0.00090    -0.01307     0.00343
 PY  C  11   0.02353     0.01101     0.01300    -0.00184     0.02341    -0.02735
 PZ  C  11  -0.36149    -0.10219    -0.21674    -0.01958    -0.28717     0.28541
  
  S  H  12   0.02865     0.00593     0.03021     0.00529     0.04183    -0.05994
  
  S  C  13  -0.00568     0.00751    -0.00600     0.02550     0.00369     0.02807
 PX  C  13   0.02532     0.01288     0.01618    -0.00420    -0.00177    -0.01224
 PY  C  13  -0.02365    -0.00230    -0.01536     0.01395     0.00040     0.02810
 PZ  C  13  -0.36468    -0.03086    -0.23453     0.24283     0.05711     0.34892
  
  S  H  14  -0.00025    -0.00370    -0.00172    -0.00226     0.00608     0.00627
  
  S  H  15   0.00306    -0.00466    -0.01070     0.01469    -0.00324    -0.00302
  
  S  H  16  -0.00623     0.00430     0.01192    -0.01112     0.00479     0.00114
  
  S  H  17  -0.00408     0.00010     0.00557     0.00063     0.00558     0.00255
  
  S  H  18   0.00366    -0.00662    -0.00445     0.00808    -0.00109    -0.00516
  
  S  H  19  -0.00036    -0.00679    -0.00590    -0.00808    -0.00245     0.02276
  
  S  H  20   0.00657    -0.00441     0.00573    -0.01665    -0.00750    -0.01849
  
  S  C  21   0.00350    -0.00302    -0.00934    -0.02102    -0.00123    -0.00881
 PX  C  21   0.00889     0.00803     0.02214     0.02803    -0.00357     0.01369
 PY  C  21   0.00459     0.00128     0.00560     0.00518    -0.00022     0.00258
 PZ  C  21   0.21597     0.12164     0.28284     0.32564    -0.11434     0.23724
  
  S  C  22   0.00259    -0.00348     0.00942     0.00354    -0.00722    -0.00107
 PX  C  22  -0.02860    -0.03873    -0.02043    -0.04532    -0.01809    -0.01789
 PY  C  22   0.00629     0.01017     0.00145     0.00797     0.00149     0.00635
 PZ  C  22  -0.21775    -0.31081    -0.13349    -0.33415    -0.15886    -0.12443
  
  S  C  23  -0.00303    -0.00446    -0.00695    -0.01234     0.01006    -0.01273
 PX  C  23  -0.01019     0.01541    -0.01511     0.00868     0.02386    -0.00204
 PY  C  23   0.01233    -0.00890     0.01848    -0.00025    -0.02487     0.00616
 PZ  C  23  -0.19551     0.16239    -0.28023     0.04265     0.41879    -0.10730
  
  S  C  24   0.00609     0.00658     0.01203     0.01707    -0.01637     0.01692
 PX  C  24   0.01000    -0.00253     0.01342     0.00112    -0.01778     0.00624
 PY  C  24  -0.00180    -0.00682    -0.00352    -0.01282     0.00179    -0.00972
 PZ  C  24   0.22565     0.08491     0.30359     0.18722    -0.35407     0.22804
  
  S  H  25  -0.00333     0.00819     0.00171     0.01957     0.00100     0.01560
  
  S  H  26  -0.00230     0.00550    -0.00732     0.00274     0.00707     0.00528
  
  S  H  27   0.00120     0.00689     0.00228     0.01210    -0.00159     0.01061
  
  S  H  28  -0.00589     0.00174    -0.01116    -0.00490     0.01481    -0.00628
  
  S  C  29  -0.00164    -0.00199     0.01739     0.02167     0.00918    -0.00549
 PX  C  29   0.01483     0.01645    -0.01190    -0.00996     0.01879    -0.01347
 PY  C  29  -0.01910     0.00526    -0.02096     0.01110    -0.01174     0.03700
 PZ  C  29   0.17877     0.30591    -0.09911    -0.00414     0.36746    -0.22212
  
  S  C  30   0.00647    -0.02269     0.00251    -0.03906    -0.00344    -0.03283
 PX  C  30  -0.01089     0.00373    -0.00972     0.00562     0.00164     0.01087
 PY  C  30   0.00004     0.00687     0.00206     0.00921     0.00653    -0.00075
 PZ  C  30   0.16906    -0.32500     0.09094    -0.34419    -0.04506    -0.26397




    ROOT NO.   49          50          51          52          53          54

             2.33709     2.48997     2.83650     3.12517     3.26637     3.43737
  
  
  S  C   1  -0.07417    -0.09265    -0.19849     0.02862     0.24340    -0.15848
 PX  C   1  -0.00583    -0.02803    -0.02434    -0.00533    -0.00490    -0.07017
 PY  C   1   0.00090    -0.02190    -0.03341    -0.01144     0.02942     0.03147
 PZ  C   1   0.29525    -0.14350    -0.02439    -0.22383    -0.03517    -0.07067
  
  S  C   2   0.09823     0.13352     0.23101    -0.01446    -0.18484     0.21108
 PX  C   2   0.00740     0.02060     0.00112     0.01212     0.05592     0.00243
 PY  C   2   0.03622     0.03161     0.03667    -0.00941     0.00689     0.00976
 PZ  C   2  -0.20307     0.10896     0.02712     0.24483     0.03919     0.09976
  
  S  C   3  -0.12614    -0.20638    -0.26906    -0.02286     0.07435    -0.14899
 PX  C   3  -0.00725    -0.00281     0.05861     0.02673    -0.07969    -0.08089
 PY  C   3  -0.01206    -0.03612    -0.02706    -0.00796    -0.03566     0.13322
 PZ  C   3   0.06155    -0.01895     0.01761    -0.30901    -0.08853    -0.10061
  
  S  C   4   0.11732     0.22718     0.29000     0.05867    -0.05141    -0.20785
 PX  C   4   0.01206     0.02718    -0.00947    -0.00795     0.05843     0.03373
 PY  C   4  -0.00606    -0.00533    -0.04999    -0.00431     0.06357    -0.13571
 PZ  C   4  -0.05612     0.02652    -0.02702     0.29088     0.09393     0.09380
  
  S  C   5  -0.09096    -0.14588    -0.23771    -0.01996     0.14093     0.17835
 PX  C   5  -0.03892    -0.05745    -0.05851    -0.01197    -0.02875     0.07542
 PY  C   5   0.00700     0.00914     0.02886    -0.00332    -0.04885     0.01701
 PZ  C   5   0.22239    -0.11452    -0.01412    -0.24365    -0.05349    -0.04551
  
  S  C   6   0.06339     0.10672     0.21077    -0.00037    -0.22704    -0.03764
 PX  C   6   0.01770     0.02423     0.03750    -0.00173    -0.02267     0.00555
 PY  C   6   0.00373     0.01146    -0.00016     0.01198     0.04450    -0.10258
 PZ  C   6  -0.31095     0.14635     0.01616     0.23045     0.04615     0.05277
  
  S  C   7   0.13046     0.19261     0.12452     0.00112     0.11619     0.24268
 PX  C   7  -0.01017    -0.00183    -0.08174    -0.01780     0.08649     0.01352
 PY  C   7   0.02951     0.03819    -0.02347    -0.00418     0.07500     0.03327
 PZ  C   7   0.13455    -0.07635    -0.02707     0.14909     0.06740     0.06402
  
  S  C   8  -0.10705    -0.21851    -0.14998    -0.04625    -0.15098     0.26310
 PX  C   8  -0.01201    -0.02361     0.06822     0.01028    -0.11015     0.00282
 PY  C   8   0.02989     0.03974     0.07096     0.01990    -0.03210    -0.02777
 PZ  C   8  -0.16963     0.05456     0.03087    -0.12630    -0.08043    -0.06559
  
  S  C   9   0.14271     0.24221     0.01173     0.02569     0.33467    -0.17363
 PX  C   9   0.00041     0.00915    -0.07977    -0.01140     0.03138     0.08528
 PY  C   9  -0.01356    -0.01238    -0.03547     0.00559    -0.05349    -0.13206
 PZ  C   9   0.34241    -0.13844    -0.04720    -0.01192     0.06864     0.07631
  
  S  C  10  -0.16437    -0.21919     0.00764     0.00455    -0.30279    -0.21851
 PX  C  10   0.01393     0.00556     0.07280     0.00950     0.04396    -0.07394
 PY  C  10  -0.01023    -0.03510     0.03208    -0.00993    -0.09207     0.12853
 PZ  C  10  -0.28481     0.16536     0.04296     0.00028    -0.03326    -0.03276
  
  S  C  11   0.14874     0.18333    -0.14097    -0.00855     0.11232     0.25254
 PX  C  11  -0.02606    -0.03577    -0.06111     0.00139    -0.12378    -0.04378
 PY  C  11   0.01631     0.04098    -0.06000     0.02949    -0.03553     0.01653
 PZ  C  11   0.06460    -0.07631    -0.01001    -0.16113    -0.00995    -0.03553
  
  S  H  12  -0.08313    -0.10034     0.08734     0.01419    -0.07611    -0.11587
  
  S  C  13  -0.12028    -0.21136     0.11607    -0.02126    -0.15868     0.21686
 PX  C  13   0.00821    -0.01848     0.08766    -0.01288     0.10094     0.00805
 PY  C  13   0.01758     0.04737     0.02192     0.01625     0.07577    -0.02937
 PZ  C  13  -0.17134     0.04299     0.02560     0.16202    -0.03751    -0.06484
  
  S  H  14  -0.06860    -0.10994    -0.07977    -0.00405    -0.08060    -0.10499
  
  S  H  15   0.05062     0.05246     0.11657    -0.02577    -0.14773     0.10693
  
  S  H  16  -0.05347    -0.08248    -0.15298     0.00322     0.13145    -0.11544
  
  S  H  17   0.04992     0.07582     0.13652     0.00715    -0.09408    -0.08209
  
  S  H  18  -0.03800    -0.07075    -0.13403    -0.00376     0.14086     0.03735
  
  S  H  19   0.05539     0.11967     0.08896     0.02416     0.09784    -0.12701
  
  S  H  20   0.07156     0.11185    -0.07205     0.00458     0.10839    -0.09167
  
  S  C  21   0.09487     0.13392    -0.22047     0.07999    -0.18097     0.16785
 PX  C  21  -0.04783    -0.03378     0.04017    -0.01465    -0.03143    -0.04748
 PY  C  21  -0.00365     0.01074    -0.02201     0.00411    -0.04805    -0.01349
 PZ  C  21  -0.18478     0.19644    -0.06581    -0.27240     0.00901     0.03366
  
  S  C  22  -0.05248    -0.11251     0.20029    -0.07376     0.26075    -0.06724
 PX  C  22   0.04400    -0.00247    -0.02645     0.04045    -0.02048    -0.01100
 PY  C  22   0.00644     0.00781     0.00084    -0.00554     0.03459     0.09104
 PZ  C  22   0.23724    -0.21348     0.04565     0.24528    -0.01534    -0.02421
  
  S  C  23   0.04621     0.12284    -0.19553     0.06337    -0.24166    -0.14345
 PX  C  23  -0.02244    -0.01522     0.01627    -0.00851    -0.01764     0.07262
 PY  C  23   0.00038    -0.03233     0.04492    -0.00588     0.06072    -0.04297
 PZ  C  23  -0.22615     0.19404    -0.02425    -0.24132     0.03317     0.03492
  
  S  C  24  -0.05939    -0.16990     0.22096    -0.03857     0.16842     0.21654
 PX  C  24   0.01972     0.01369    -0.00229     0.00056     0.05236    -0.01665
 PY  C  24   0.02918     0.05670    -0.05635     0.00354     0.00379    -0.03248
 PZ  C  24   0.16205    -0.14441     0.01072     0.25672    -0.04064    -0.06096
  
  S  H  25  -0.05446    -0.07186     0.13041    -0.05483     0.11794    -0.07440
  
  S  H  26   0.02921     0.07601    -0.12847     0.03977    -0.16678     0.05734
  
  S  H  27  -0.03243    -0.07114     0.11382    -0.04057     0.13773     0.10028
  
  S  H  28   0.02714     0.09491    -0.13453     0.02085    -0.11933    -0.11066
  
  S  C  29  -0.13917    -0.20548     0.26833    -0.05131     0.07935    -0.16976
 PX  C  29   0.02713     0.02490     0.00474     0.00291     0.07007    -0.04463
 PY  C  29  -0.00005    -0.03244     0.06375    -0.01183     0.05617     0.12681
 PZ  C  29   0.04922    -0.10138     0.06540     0.32393    -0.01452    -0.03188
  
  S  C  30   0.11562     0.22447    -0.25569     0.03353    -0.05821    -0.16597
 PX  C  30  -0.00345     0.00143    -0.06354     0.01286    -0.09659     0.05897
 PY  C  30  -0.02588    -0.02324     0.02590     0.00052    -0.02326    -0.11445
 PZ  C  30  -0.00714     0.06064    -0.01502    -0.31460     0.04654     0.07733




    ROOT NO.   55          56          57          58          59          60

             3.54426     3.62141     3.66631     3.92029     4.22465     4.34084
  
  
  S  C   1  -0.18138    -0.16591     0.29455    -0.08413     0.03874     0.02645
 PX  C   1   0.04825     0.01992    -0.06370    -0.13544     0.13983     0.01108
 PY  C   1  -0.04433    -0.00619     0.03483     0.06849    -0.03210    -0.02010
 PZ  C   1  -0.09836     0.06875     0.01554    -0.01293    -0.01002     0.00730
  
  S  C   2   0.02399     0.05139    -0.01898     0.29952    -0.29231    -0.03067
 PX  C   2  -0.09000    -0.07293     0.15597     0.04389    -0.02536    -0.00153
 PY  C   2  -0.05328    -0.03243     0.08779    -0.01182     0.08107    -0.00061
 PZ  C   2   0.12389    -0.09887    -0.00850     0.04173    -0.01106    -0.01287
  
  S  C   3   0.13426     0.10787    -0.28978    -0.19422    -0.01374     0.06507
 PX  C   3   0.07750    -0.02302     0.02250    -0.00907    -0.17919     0.04374
 PY  C   3   0.03277     0.06057    -0.10138     0.14451    -0.08137    -0.03500
 PZ  C   3  -0.21220     0.18622     0.01471    -0.01337    -0.02043     0.01961
  
  S  C   4  -0.04142    -0.16110     0.28675    -0.12352    -0.02862     0.04333
 PX  C   4  -0.07938    -0.00915     0.04245     0.12951    -0.15187    -0.00148
 PY  C   4   0.02508     0.02185    -0.09467    -0.10484    -0.10269     0.07240
 PZ  C   4   0.19930    -0.17031    -0.02696     0.01099    -0.01127    -0.00220
  
  S  C   5  -0.10348     0.03713    -0.03365     0.29070    -0.26858    -0.02125
 PX  C   5   0.06548     0.07653    -0.15656    -0.00714     0.05539     0.00250
 PY  C   5   0.05290     0.03990    -0.08157    -0.00443    -0.01261     0.00356
 PZ  C   5  -0.12458     0.10345     0.00483     0.01416    -0.01114    -0.00000
  
  S  C   6   0.23272     0.11882    -0.27372    -0.18629     0.12630     0.03162
 PX  C   6   0.00359     0.00041     0.00598     0.00617     0.02143    -0.01455
 PY  C   6  -0.03451    -0.06453     0.10532    -0.11399     0.09587     0.01617
 PZ  C   6   0.09691    -0.07645    -0.00709     0.00186     0.00412    -0.00233
  
  S  C   7  -0.19124    -0.03844     0.06801     0.12634     0.33227    -0.12864
 PX  C   7  -0.01442     0.05249    -0.12816    -0.06645     0.05822     0.02847
 PY  C   7  -0.02016     0.01558    -0.08333    -0.04015    -0.04445     0.06004
 PZ  C   7   0.18696    -0.18265    -0.01047     0.01377     0.01250    -0.02681
  
  S  C   8   0.05925     0.07667     0.01138     0.10107     0.32525    -0.14428
 PX  C   8   0.01598    -0.05211     0.15083    -0.04782    -0.01400     0.05105
 PY  C   8   0.00541    -0.05128     0.08950    -0.02493     0.05367    -0.01460
 PZ  C   8  -0.16505     0.16728     0.02094    -0.00340     0.02214    -0.00746
  
  S  C   9  -0.06800     0.02756    -0.28185    -0.00954    -0.10094    -0.07936
 PX  C   9   0.00349     0.06318    -0.05096     0.06763     0.14703    -0.10539
 PY  C   9   0.07882     0.02014     0.04709     0.04419    -0.04717    -0.15454
 PZ  C   9   0.21526    -0.23895    -0.00672     0.00699    -0.01262    -0.00223
  
  S  C  10   0.15000    -0.03153     0.22522     0.01476    -0.12087    -0.09546
 PX  C  10  -0.03338    -0.03711    -0.04435     0.07513     0.02799    -0.16455
 PY  C  10  -0.01898    -0.02303     0.11956     0.04361     0.13988     0.00507
 PZ  C  10  -0.23780     0.24676    -0.01574    -0.01725     0.01583     0.04056
  
  S  C  11   0.01919     0.09853     0.02100    -0.11874     0.01028     0.35638
 PX  C  11   0.08777     0.02021     0.13401    -0.04664    -0.04997    -0.00519
 PY  C  11   0.01539     0.06762     0.05760    -0.03446    -0.02447    -0.05399
 PZ  C  11   0.15068    -0.20691     0.00201     0.03411    -0.00809    -0.13262
  
  S  H  12  -0.04478    -0.05771    -0.01169     0.06181     0.00756    -0.31058
  
  S  C  13  -0.10970    -0.12967     0.06397    -0.10739    -0.00785     0.36812
 PX  C  13  -0.07925    -0.07523    -0.13128    -0.05794    -0.03165    -0.04293
 PY  C  13  -0.03843     0.00764    -0.06647    -0.03252    -0.02356     0.04061
 PZ  C  13  -0.14055     0.19019    -0.00028     0.00813     0.01420    -0.03147
  
  S  H  14   0.12524     0.03513    -0.05463    -0.07291    -0.28800     0.14186
  
  S  H  15   0.10400     0.10815    -0.18385     0.04598     0.03199    -0.03037
  
  S  H  16  -0.03185    -0.03264     0.01465    -0.21370     0.28302     0.00990
  
  S  H  17   0.05999    -0.01932     0.02577    -0.18319     0.23316     0.00006
  
  S  H  18  -0.15242    -0.07392     0.17771     0.12194    -0.04073    -0.03505
  
  S  H  19  -0.05801    -0.04894    -0.01143    -0.05377    -0.27917     0.14822
  
  S  H  20   0.06800     0.09011    -0.04309     0.05578     0.01995    -0.32018
  
  S  C  21  -0.10233    -0.00019     0.05186    -0.29059    -0.15309    -0.24246
 PX  C  21  -0.08451    -0.12537    -0.10817    -0.00080    -0.02228    -0.07470
 PY  C  21  -0.05397    -0.07473    -0.05611     0.01958     0.01724     0.03907
 PZ  C  21   0.10209    -0.11055     0.01645    -0.01751    -0.01351    -0.02780
  
  S  C  22   0.25399     0.23964     0.15977     0.14834     0.06994     0.08687
 PX  C  22  -0.00560     0.01944     0.00740     0.01173     0.00484    -0.02062
 PY  C  22   0.03173     0.08052     0.07506    -0.13310    -0.07215    -0.09960
 PZ  C  22  -0.07340     0.08601    -0.00507     0.00674     0.00672     0.01894
  
  S  C  23  -0.16890    -0.23884    -0.18440     0.15939     0.08042     0.07365
 PX  C  23  -0.06576    -0.05341    -0.03301    -0.11491    -0.05718    -0.09747
 PY  C  23   0.06831     0.06212     0.03559     0.08191     0.04275     0.04532
 PZ  C  23   0.07791    -0.07103     0.01224    -0.00761    -0.00482    -0.00313
  
  S  C  24  -0.02920     0.05558     0.02724    -0.29759    -0.14298    -0.22189
 PX  C  24   0.09360     0.11022     0.08524     0.01440    -0.00293     0.00377
 PY  C  24   0.08487     0.08591     0.08385    -0.00017    -0.02725    -0.04287
 PZ  C  24  -0.08299     0.10168    -0.00739     0.03166     0.01649     0.01027
  
  S  H  25   0.06001    -0.00103    -0.03276     0.18568     0.11625     0.23540
  
  S  H  26  -0.16720    -0.16258    -0.10566    -0.10101    -0.04168    -0.01439
  
  S  H  27   0.09148     0.13483     0.10748    -0.10634    -0.04959    -0.01519
  
  S  H  28   0.00187    -0.05217    -0.02230     0.19063     0.10709     0.20388
  
  S  C  29  -0.12007    -0.21942    -0.24011     0.15711     0.05523    -0.05978
 PX  C  29   0.07509     0.07776     0.02965     0.12143     0.07230     0.13904
 PY  C  29  -0.08190    -0.05444    -0.06823    -0.08856    -0.00893     0.12408
 PZ  C  29  -0.16993     0.19433    -0.01853     0.00386     0.01347     0.02999
  
  S  C  30   0.22707     0.20743     0.19360     0.15235     0.03458    -0.04177
 PX  C  30  -0.00154     0.00394     0.06307    -0.00161     0.01683     0.17971
 PY  C  30  -0.03630    -0.08750    -0.09033     0.14798     0.06817     0.03939
 PZ  C  30   0.12760    -0.21432    -0.01633    -0.02720    -0.01759     0.00926




    ROOT NO.   61          62          63          64          65          66

             5.25288     5.47319     5.51427     5.73873     6.13466     6.44620
  
  
  S  C   1  -0.13878    -0.27534     0.12265     0.05105    -0.05101    -0.01697
 PX  C   1   0.13245     0.10794     0.02129    -0.10226     0.10976     0.04794
 PY  C   1   0.04161     0.25320    -0.17436     0.00959     0.00633    -0.00013
 PZ  C   1  -0.01052    -0.02674     0.01423     0.00285    -0.00455    -0.00248
  
  S  C   2  -0.16496    -0.10616    -0.03601     0.11139    -0.10893    -0.05246
 PX  C   2  -0.10874    -0.17446     0.06507     0.04591    -0.04389    -0.01930
 PY  C   2   0.07047     0.09378     0.00333    -0.10314     0.18867     0.15198
 PZ  C   2  -0.00327     0.01051    -0.01079     0.00363     0.00220     0.00569
  
  S  C   3   0.02574    -0.00955    -0.02191     0.06962    -0.16848    -0.13932
 PX  C   3  -0.14889     0.00529    -0.08900     0.03662     0.07691     0.10409
 PY  C   3  -0.04708    -0.07421     0.00796     0.07698    -0.14379    -0.12029
 PZ  C   3  -0.02071    -0.01238    -0.00181     0.00408     0.00307     0.00477
  
  S  C   4  -0.04487     0.04513    -0.02993    -0.05543     0.14949     0.12052
 PX  C   4   0.13619     0.02814     0.09223    -0.11509     0.10650     0.04859
 PY  C   4   0.10795     0.03952     0.00410     0.01088    -0.14114    -0.14716
 PZ  C   4   0.01892     0.00230     0.00678    -0.00329    -0.00582    -0.00735
  
  S  C   5   0.17965     0.00359     0.15046    -0.16169     0.15577     0.07009
 PX  C   5   0.00803    -0.06571     0.02733     0.05156    -0.12457    -0.09332
 PY  C   5   0.07394    -0.10757     0.16504    -0.11623     0.14389     0.08944
 PZ  C   5   0.00702    -0.00113     0.00731    -0.00656     0.00448     0.00101
  
  S  C   6   0.05660    -0.21069     0.21530    -0.08067     0.05984     0.02579
 PX  C   6  -0.03571     0.22550    -0.22663     0.09494    -0.09366    -0.04848
 PY  C   6  -0.13083    -0.12333    -0.01033     0.09921    -0.10524    -0.04605
 PZ  C   6   0.00108     0.00789    -0.00628     0.00148    -0.00089    -0.00013
  
  S  C   7   0.20634    -0.01322     0.11874    -0.03810    -0.09659    -0.11922
 PX  C   7   0.04171    -0.04954     0.02433     0.04136    -0.13135    -0.11692
 PY  C   7  -0.08440    -0.02522    -0.09044     0.07600     0.07461     0.28950
 PZ  C   7   0.01810    -0.00059     0.00464     0.00616    -0.01564    -0.00563
  
  S  C   8  -0.23289    -0.07357    -0.05645     0.05412     0.08124     0.12176
 PX  C   8   0.03680     0.01951     0.02894    -0.07971     0.01214    -0.09926
 PY  C   8  -0.10237    -0.03631    -0.01847     0.00474     0.13150     0.19605
 PZ  C   8  -0.01953    -0.00329    -0.00208    -0.00285     0.01117     0.00875
  
  S  C   9  -0.01374    -0.00975    -0.03747     0.10621    -0.02292     0.12143
 PX  C   9  -0.17107    -0.04187    -0.05030     0.03142     0.07148     0.10728
 PY  C   9  -0.07268     0.05572     0.03137    -0.10247     0.07877    -0.19553
 PZ  C   9   0.01116    -0.00106    -0.00042     0.00693    -0.00403     0.00823
  
  S  C  10   0.01717     0.07906     0.05856    -0.11307     0.03461    -0.20204
 PX  C  10   0.13670    -0.00286     0.03923     0.07566    -0.09703     0.07892
[...]
  S   H   18   -0.1121   -0.0561   -0.0213   -0.0207    0.0222    0.0061    0.2731    0.0296
  S   H   19   -0.1253   -0.2232    0.2188    0.2742    0.0136   -0.0062    0.0385    0.2165
  S   H   20    0.1913   -0.2151    0.2322    0.0650    0.2117    0.0391   -0.0084   -0.2251
  S   C   21    0.1030   -0.0369   -0.0103   -0.0044   -0.0073    0.0780   -0.0013    0.0053
  Px  C   21    0.1090   -0.0626   -0.2779    0.2475   -0.0477   -0.0887    0.0036    0.0576
  Py  C   21   -0.1221    0.0674    0.1016   -0.0842    0.0273    0.3274   -0.0051    0.0730
  Pz  C   21   -0.0070    0.0061    0.0160   -0.0142    0.0030    0.0042   -0.0000   -0.0025
  S   C   22    0.0421   -0.0180    0.0494   -0.0400    0.0085   -0.1288    0.0017   -0.0455
  Px  C   22    0.0431   -0.0223    0.0646   -0.0475    0.0224    0.5317   -0.0065    0.1402
  Py  C   22    0.0895   -0.0237   -0.0437    0.0362   -0.0046   -0.0487    0.0012   -0.0069
  Pz  C   22   -0.0015    0.0010   -0.0050    0.0028   -0.0024   -0.0650    0.0008   -0.0176
  S   C   23   -0.0801    0.0164    0.0541   -0.0414    0.0106    0.0673   -0.0009   -0.0036
  Px  C   23   -0.1345    0.0450   -0.0124    0.0198    0.0067   -0.1431    0.0006    0.0761
  Py  C   23   -0.0219    0.0013    0.0797   -0.0623    0.0191   -0.4554    0.0053   -0.0586
  Pz  C   23    0.0048   -0.0013    0.0015   -0.0016   -0.0001   -0.0153    0.0002   -0.0090
  S   C   24   -0.1334    0.0412   -0.0076   -0.0020   -0.0052   -0.0440    0.0003    0.0618
  Px  C   24    0.0807   -0.0216   -0.0509    0.0518    0.0007   -0.1157    0.0008    0.0689
  Py  C   24   -0.2154    0.1339   -0.2645    0.2119   -0.0709    0.1798   -0.0023   -0.2030
  Pz  C   24    0.0016    0.0001   -0.0000    0.0005   -0.0001    0.0081   -0.0000   -0.0061
  S   H   25   -0.1690    0.0830    0.1901   -0.1576    0.0426    0.1923   -0.0037    0.0174
  S   H   26   -0.0575    0.0285   -0.0506    0.0345   -0.0181   -0.3254    0.0038   -0.0855
  S   H   27    0.1314   -0.0369   -0.0550    0.0362   -0.0172    0.2964   -0.0030    0.0089
  S   H   28    0.2438   -0.1123    0.1558   -0.1171    0.0487   -0.1287    0.0015    0.1213
  S   C   29    0.1227   -0.0681   -0.2290    0.2323   -0.0138    0.0257   -0.0006    0.0224
  Px  C   29   -0.0833    0.0418   -0.0682    0.0961    0.0128   -0.1046    0.0052    0.0665
  Py  C   29    0.1745   -0.1546    0.0821   -0.1028   -0.0130   -0.0426   -0.0022    0.0198
  Pz  C   29    0.0200   -0.0145   -0.0102    0.0117    0.0003    0.0116   -0.0008   -0.0058
  S   C   30   -0.1618    0.1183   -0.1942    0.1872   -0.0211    0.0012    0.0012    0.0204
  Px  C   30   -0.0930    0.0870    0.0387   -0.0697   -0.0325    0.0532    0.0009   -0.2294
  Py  C   30    0.1323   -0.0657   -0.1275    0.1671    0.0178    0.0812   -0.0037   -0.1179
  Pz  C   30    0.0105   -0.0073    0.0089   -0.0166   -0.0059    0.0033   -0.0002   -0.0070


   Root No.      73        74        75        76        77        78        79        80

                73 A      74 A      75 A      76 A      77 A      78 A      79 A      80 A   

                 9.378     9.569    10.108    10.631    10.992    11.671    11.740    12.123
  
  S   C    1    0.0278    0.0559   -0.0338   -0.0533   -0.0499    0.0354    0.0174    0.0099
  Px  C    1    0.1561    0.1736    0.0530   -0.2204    0.1052   -0.1185   -0.1617    0.2072
  Py  C    1   -0.0454    0.0733   -0.1684   -0.0016   -0.2196    0.1743    0.1504   -0.1090
  Pz  C    1   -0.0067   -0.0104    0.0025    0.0098    0.0023   -0.0013    0.0032   -0.0079
  S   C    2   -0.0870   -0.0473   -0.0594    0.0365   -0.0808    0.0781    0.0329    0.0120
  Px  C    2    0.1516    0.1869    0.0084   -0.2368    0.0186   -0.0316   -0.1261    0.2321
  Py  C    2   -0.2536   -0.0735   -0.1621   -0.0319   -0.1855    0.1746   -0.0030    0.1674
  Pz  C    2   -0.0244   -0.0085   -0.0171    0.0008   -0.0213    0.0200    0.0035    0.0129
  S   C    3   -0.0085   -0.0385   -0.0049    0.0629   -0.0169    0.0185    0.0172   -0.0145
  Px  C    3   -0.2546   -0.0153   -0.2361   -0.0563   -0.1070   -0.1655    0.0351   -0.1425
  Py  C    3   -0.0926    0.0100   -0.0894   -0.0776   -0.1986    0.3304   -0.0683    0.3916
  Pz  C    3   -0.0229   -0.0008   -0.0214   -0.0093   -0.0182    0.0065   -0.0029    0.0139
  S   C    4   -0.0297   -0.0276   -0.0143    0.0539    0.0304   -0.0401   -0.0180   -0.0050
  Px  C    4   -0.0502   -0.1018    0.2143   -0.1686    0.2057   -0.1624    0.0297   -0.1638
  Py  C    4   -0.0203   -0.1213    0.1392   -0.0093   -0.0142    0.3176   -0.0741    0.3661
  Pz  C    4   -0.0036   -0.0087    0.0148   -0.0097    0.0087    0.0028   -0.0001    0.0022
  S   C    5   -0.0628   -0.0628    0.0408    0.0141    0.0803   -0.0743   -0.0383    0.0036
  Px  C    5   -0.0138   -0.0458    0.1635   -0.1946    0.1168   -0.0907    0.0640   -0.1702
  Py  C    5    0.2796    0.2425   -0.0482   -0.1452   -0.1594    0.1535    0.1211   -0.0825
  Pz  C    5   -0.0037   -0.0054    0.0099   -0.0079    0.0100   -0.0082    0.0006   -0.0071
  S   C    6    0.0919    0.0557    0.0529   -0.0840    0.0358   -0.0225   -0.0134    0.0074
  Px  C    6    0.2768    0.1389    0.1538   -0.1921    0.0946   -0.0532   -0.0350    0.0243
  Py  C    6    0.0772    0.1135   -0.0934   -0.0887   -0.2287    0.2142    0.2200   -0.1958
  Pz  C    6   -0.0010    0.0003   -0.0019    0.0001   -0.0026    0.0027    0.0007    0.0010
  S   C    7    0.1228   -0.0295    0.0760    0.0860   -0.0026    0.0680    0.0433    0.0100
  Px  C    7   -0.1713   -0.0528   -0.1627    0.0224   -0.0996   -0.1117    0.0863   -0.1519
  Py  C    7    0.3233   -0.1020    0.1177    0.2294   -0.0465    0.0913    0.1519   -0.0292
  Pz  C    7   -0.0059   -0.0050   -0.0092    0.0061   -0.0089   -0.0067    0.0099   -0.0120
  S   C    8   -0.0047    0.0275   -0.0758    0.0816    0.0196   -0.0667   -0.0475   -0.0217
  Px  C    8   -0.0549   -0.0663   -0.0358    0.1843    0.1519   -0.0235   -0.2076    0.1476
  Py  C    8   -0.0379   -0.1216    0.1981   -0.1436    0.0239    0.1511    0.0171    0.1591
  Pz  C    8   -0.0025   -0.0075    0.0077    0.0007    0.0056    0.0061   -0.0058    0.0110
  S   C    9    0.0085    0.0353   -0.0241    0.0043   -0.0137   -0.0226   -0.0018   -0.0142
  Px  C    9   -0.0724   -0.0329   -0.0980    0.2320    0.1820   -0.0890   -0.2287    0.1097
  Py  C    9   -0.0318    0.0053    0.0921    0.1163    0.1873    0.0537    0.4201   -0.0021
  Pz  C    9   -0.0021   -0.0015   -0.0059    0.0062    0.0040   -0.0035   -0.0174    0.0037
  S   C   10    0.0009    0.0272    0.0425   -0.0044    0.0199    0.0287    0.0184   -0.0035
  Px  C   10    0.2849   -0.0837   -0.0269    0.2750   -0.1861    0.0085   -0.2303   -0.0572
  Py  C   10    0.1322   -0.1018    0.1114    0.1240   -0.0112    0.1006    0.4034   -0.0764
  Pz  C   10    0.0193   -0.0087   -0.0032    0.0178   -0.0104    0.0021   -0.0084   -0.0042
  S   C   11   -0.0952    0.0583    0.0657   -0.0708    0.0574    0.0599    0.0322   -0.0176
  Px  C   11    0.1994   -0.0298    0.0235    0.2247   -0.1065    0.0692   -0.2104   -0.0768
  Py  C   11   -0.2423    0.2077    0.1983   -0.0792    0.0852    0.1873   -0.0289   -0.1063
  Pz  C   11   -0.0110    0.0055   -0.0011   -0.0036    0.0009   -0.0041    0.0040    0.0007
  S   H   12   -0.1760    0.1132    0.0921   -0.0873    0.0758    0.0827    0.0425   -0.0364
  S   C   13    0.0217    0.0589   -0.0529   -0.0524   -0.0801   -0.0665   -0.0333   -0.0008
  Px  C   13    0.0181    0.2091   -0.1259    0.0521   -0.0104   -0.1986    0.1334    0.0795
  Py  C   13   -0.0551   -0.1082    0.0770    0.2009    0.2105    0.0536    0.1674    0.0172
  Pz  C   13    0.0049    0.0187   -0.0128   -0.0074   -0.0132   -0.0166   -0.0005    0.0044
  S   H   14    0.2064   -0.0357    0.1053    0.0946    0.0043    0.0819    0.0582    0.0322
  S   H   15    0.0171    0.0897   -0.0737   -0.0660   -0.0832    0.0571    0.0285    0.0076
  S   H   16   -0.1675   -0.0870   -0.0808    0.0466   -0.0962    0.0971    0.0318    0.0235
  S   H   17   -0.1510   -0.1396    0.0729    0.0165    0.1160   -0.1085   -0.0434   -0.0110
  S   H   18    0.1622    0.0799    0.0922   -0.1126    0.0568   -0.0340   -0.0203    0.0122
  S   H   19    0.0019    0.0450   -0.1107    0.1117    0.0285   -0.0887   -0.0687   -0.0425
  S   H   20    0.0356    0.1135   -0.0731   -0.0806   -0.1136   -0.0854   -0.0522    0.0174
  S   C   21    0.0466   -0.0856   -0.1140   -0.0521    0.0897    0.0268    0.0293    0.0183
  Px  C   21   -0.1083    0.0484    0.1750   -0.1142   -0.1328   -0.1149    0.1126    0.1244
  Py  C   21    0.0908   -0.2710   -0.1956   -0.2063    0.1369    0.0124    0.1166    0.1020
  Pz  C   21    0.0040   -0.0012   -0.0081    0.0064    0.0073    0.0075   -0.0074   -0.0087
  S   C   22    0.0082    0.0646   -0.0250    0.0674    0.0313    0.0097   -0.0026    0.0018
  Px  C   22   -0.0437   -0.1551    0.0987   -0.1380   -0.0904   -0.0189   -0.0132   -0.0238
  Py  C   22    0.0771   -0.1402   -0.2501   -0.1723    0.2249   -0.0002    0.2135    0.2003
  Pz  C   22    0.0089    0.0136   -0.0217    0.0114    0.0195    0.0026    0.0089    0.0098
  S   C   23   -0.0321    0.0704    0.0638    0.0788   -0.0202   -0.0087    0.0025    0.0229
  Px  C   23    0.0542   -0.2434    0.0275   -0.2133   -0.1810    0.0062   -0.1833   -0.2342
  Py  C   23    0.1268   -0.1340   -0.2616   -0.1146    0.1732    0.0109    0.1147    0.0980
  Pz  C   23    0.0038    0.0084   -0.0179    0.0061    0.0223    0.0002    0.0188    0.0212
  S   C   24    0.0096   -0.1087    0.0616   -0.0416   -0.0920   -0.0278   -0.0293   -0.0203
  Px  C   24    0.0615   -0.2447   -0.0391   -0.2453   -0.1044    0.0395   -0.1658   -0.2423
  Py  C   24   -0.0136    0.2771   -0.1878   -0.0051    0.1857    0.1089   -0.0374   -0.0974
  Pz  C   24   -0.0037    0.0175   -0.0015    0.0132    0.0101    0.0006    0.0083    0.0099
  S   H   25    0.0747   -0.1421   -0.1465   -0.0653    0.1131    0.0483    0.0221    0.0087
  S   H   26    0.0307    0.0885   -0.0655    0.0788    0.0585    0.0138    0.0088    0.0143
  S   H   27   -0.0856    0.1493    0.1275    0.1281   -0.0309   -0.0100    0.0022    0.0258
  S   H   28    0.0267   -0.2141    0.0806   -0.0754   -0.1306   -0.0474   -0.0345   -0.0273
  S   C   29   -0.0059   -0.0426   -0.0232   -0.0666    0.0249    0.0001    0.0250    0.0158
  Px  C   29   -0.1497    0.1050    0.2819   -0.0576   -0.2135   -0.1368    0.0914    0.1103
  Py  C   29   -0.1007    0.1317    0.1135    0.0077    0.1993    0.3616   -0.1544   -0.2145
  Pz  C   29    0.0161   -0.0145   -0.0272    0.0026    0.0165    0.0069   -0.0043   -0.0053
  S   C   30    0.0058   -0.0522    0.0035   -0.0536   -0.0323    0.0020   -0.0193   -0.0198
  Px  C   30    0.0421    0.2348   -0.1917   -0.0054   -0.0790   -0.2517    0.0826    0.0641
  Py  C   30    0.0025    0.1103   -0.1871   -0.0946    0.2797    0.3109   -0.1608   -0.2537
  Pz  C   30    0.0006    0.0104   -0.0086    0.0020    0.0103    0.0059   -0.0025   -0.0054


   Root No.      81        82        83        84

                81 A      82 A      83 A      84 A   

                12.538    12.741    13.151    14.415
  
  S   C    1    0.0531   -0.0218    0.0019    0.0361
  Px  C    1    0.0235   -0.2765   -0.1512    0.1042
  Py  C    1    0.1229    0.1274    0.1064    0.0209
  Pz  C    1   -0.0027    0.0089    0.0038   -0.0038
  S   C    2    0.0240    0.0033    0.0150    0.0296
  Px  C    2    0.0698   -0.2933   -0.1407    0.1472
  Py  C    2    0.0896   -0.1365   -0.0247    0.1267
  Pz  C    2    0.0084   -0.0102   -0.0011    0.0119
  S   C    3   -0.0072    0.0034   -0.0090    0.0249
  Px  C    3    0.2186   -0.2247   -0.2131    0.2485
  Py  C    3    0.0082   -0.1643    0.0254    0.0979
  Pz  C    3    0.0160   -0.0272   -0.0148    0.0235
  S   C    4   -0.0092    0.0002    0.0048    0.0235
  Px  C    4    0.3299    0.0621    0.1357    0.1991
  Py  C    4    0.0493   -0.0002    0.2148    0.1049
  Pz  C    4    0.0194    0.0045    0.0145    0.0131
  S   C    5    0.0014   -0.0265   -0.0153    0.0241
  Px  C    5    0.3327    0.0806    0.1346    0.1644
  Py  C    5    0.1759    0.1137    0.1243    0.0434
  Pz  C    5    0.0143    0.0022    0.0052    0.0081
  S   C    6    0.0594   -0.0189    0.0095    0.0366
  Px  C    6    0.1138   -0.0468    0.0129    0.0711
  Py  C    6    0.2565    0.2208    0.2031    0.0542
  Pz  C    6    0.0006    0.0001    0.0007    0.0006
  S   C    7   -0.0616    0.0161    0.0045    0.0113
  Px  C    7    0.1800   -0.2236   -0.2226    0.2788
  Py  C    7   -0.0476   -0.1112   -0.0958    0.1616
  Pz  C    7    0.0117   -0.0191   -0.0192    0.0241
  S   C    8   -0.0364    0.0269    0.0024    0.0153
  Px  C    8    0.1459    0.1223    0.2567    0.2446
  Py  C    8    0.1339   -0.0188    0.1428    0.1043
  Pz  C    8    0.0105    0.0032    0.0133    0.0128
  S   C    9   -0.0562    0.0062   -0.0007   -0.0029
  Px  C    9    0.0829    0.1321    0.2502    0.2477
  Py  C    9   -0.1504   -0.2265    0.1306    0.1410
  Pz  C    9    0.0066    0.0089    0.0062    0.0058
  S   C   10   -0.0550    0.0368    0.0040   -0.0100
  Px  C   10    0.0689    0.1017   -0.1973    0.2801
  Py  C   10   -0.0598   -0.2775   -0.1089    0.1613
  Pz  C   10    0.0061   -0.0006   -0.0124    0.0174
  S   C   11   -0.0636    0.0317   -0.0184   -0.0006
  Px  C   11    0.0019    0.1513   -0.2050    0.2705
  Py  C   11   -0.1424    0.1181   -0.1522    0.1465
  Pz  C   11    0.0029   -0.0073    0.0062   -0.0049
  S   H   12   -0.0613    0.0070   -0.0226    0.0045
  S   C   13   -0.0494    0.0294    0.0110   -0.0061
  Px  C   13   -0.2179   -0.0241    0.2734    0.2335
  Py  C   13   -0.0315   -0.1063    0.1288    0.1454
  Pz  C   13   -0.0108    0.0032    0.0107    0.0058
  S   H   14   -0.0666   -0.0018    0.0151    0.0007
  S   H   15    0.0660   -0.0136    0.0117    0.0359
  S   H   16    0.0200    0.0123    0.0258    0.0170
  S   H   17    0.0012   -0.0333   -0.0280    0.0180
  S   H   18    0.0622   -0.0279    0.0042    0.0368
  S   H   19   -0.0156    0.0421   -0.0035    0.0119
  S   H   20   -0.0299    0.0468    0.0074   -0.0103
  S   C   21    0.0177    0.0113   -0.0160   -0.0278
  Px  C   21   -0.1821    0.2818   -0.1404    0.2055
  Py  C   21   -0.0693    0.2010   -0.1377    0.0787
  Pz  C   21    0.0107   -0.0183    0.0093   -0.0135
  S   C   22    0.0599   -0.0459    0.0154   -0.0453
  Px  C   22   -0.1220    0.0646   -0.0082    0.0820
  Py  C   22   -0.0433    0.2990   -0.2178    0.0943
  Pz  C   22    0.0133    0.0027   -0.0067   -0.0060
  S   C   23    0.0696   -0.0138   -0.0182   -0.0416
  Px  C   23   -0.2487   -0.1404    0.2073    0.0957
  Py  C   23   -0.0199    0.1350   -0.0932    0.0395
  Pz  C   23    0.0146    0.0177   -0.0194   -0.0038
  S   C   24   -0.0078   -0.0225    0.0188   -0.0208
  Px  C   24   -0.2928   -0.1205    0.2082    0.1376
  Py  C   24   -0.1333   -0.0146    0.0566    0.1098
  Pz  C   24    0.0113    0.0048   -0.0081   -0.0035
  S   H   25    0.0151    0.0175   -0.0290   -0.0149
  S   H   26    0.0678   -0.0321    0.0006   -0.0415
  S   H   27    0.0847   -0.0228   -0.0157   -0.0449
  S   H   28   -0.0322   -0.0282    0.0407   -0.0050
  S   C   29   -0.0150    0.0158    0.0031   -0.0227
  Px  C   29   -0.1837    0.2676   -0.1358    0.2353
  Py  C   29   -0.0857    0.0787   -0.2070    0.1512
  Pz  C   29    0.0169   -0.0234    0.0144   -0.0222
  S   C   30   -0.0069   -0.0003   -0.0160   -0.0271
  Px  C   30   -0.2492    0.0001    0.2685    0.2128
  Py  C   30   -0.1435   -0.0631    0.0103    0.0991
  Pz  C   30   -0.0078   -0.0017    0.0056    0.0080


              NET ATOMIC CHARGES AND DIPOLE CONTRIBUTIONS

  ATOM NO.   TYPE          CHARGE      No. of ELECS.   s-Pop       p-Pop       
    1          C          -0.031294        4.0313     1.10296     2.92834
    2          C          -0.034273        4.0343     1.10872     2.92555
    3          C           0.022311        3.9777     1.05654     2.92115
    4          C           0.001152        3.9988     1.08061     2.91824
    5          C          -0.030582        4.0306     1.09475     2.93583
    6          C          -0.020917        4.0209     1.09082     2.93010
    7          C          -0.034407        4.0344     1.09567     2.93874
    8          C          -0.041986        4.0420     1.10731     2.93468
    9          C           0.011230        3.9888     1.06734     2.92143
   10          C           0.007911        3.9921     1.07641     2.91567
   11          C          -0.047924        4.0479     1.11352     2.93440
   12          H           0.026551        0.9734     0.97345
   13          C          -0.031235        4.0312     1.09771     2.93352
   14          H           0.020798        0.9792     0.97920
   15          H           0.021610        0.9784     0.97839
   16          H           0.028933        0.9711     0.97107
   17          H           0.031257        0.9687     0.96874
   18          H           0.025027        0.9750     0.97497
   19          H           0.027485        0.9725     0.97252
   20          H           0.033785        0.9662     0.96621
   21          C          -0.022684        4.0227     1.08889     2.93380
   22          C          -0.027414        4.0274     1.10464     2.92278
   23          C          -0.026882        4.0269     1.08941     2.93747
   24          C          -0.026583        4.0266     1.09699     2.92959
   25          H           0.019558        0.9804     0.98044
   26          H           0.021312        0.9787     0.97869
   27          H           0.031835        0.9682     0.96817
   28          H           0.031063        0.9689     0.96894
   29          C           0.020794        3.9792     1.06937     2.90984
   30          C          -0.006434        4.0064     1.08908     2.91735
 DIPOLE           X         Y         Z       TOTAL
 POINT-CHG.    -0.010     0.363    -0.047     0.366
 HYBRID        -0.045    -0.004    -0.214     0.219
 SUM           -0.055     0.360    -0.261     0.448


          ATOMIC ORBITAL ELECTRON POPULATIONS

     Atom    s        px        py        pz   
    1  C   1.10296   0.98046   0.94600   1.00188
    2  C   1.10872   0.97503   0.94948   1.00103
    3  C   1.05654   0.97143   0.96972   0.98000
    4  C   1.08061   0.96043   0.96908   0.98873
    5  C   1.09475   0.97006   0.95968   1.00609
    6  C   1.09082   0.94195   0.98732   1.00083
    7  C   1.09567   0.96328   0.95383   1.02162
    8  C   1.10731   0.96664   0.95109   1.01694
    9  C   1.06734   0.97201   0.96567   0.98374
   10  C   1.07641   0.96850   0.97165   0.97552
   11  C   1.11352   0.96297   0.94851   1.02292
   12  H   0.97345
   13  C   1.09771   0.97940   0.95206   1.00206
   14  H   0.97920
   15  H   0.97839
   16  H   0.97107
   17  H   0.96874
   18  H   0.97497
   19  H   0.97252
   20  H   0.96621
   21  C   1.08889   0.97127   0.95402   1.00851
   22  C   1.10464   0.94201   0.98509   0.99568
   23  C   1.08941   0.97462   0.95649   1.00636
   24  C   1.09699   0.96481   0.96677   0.99801
   25  H   0.98044
   26  H   0.97869
   27  H   0.96817
   28  H   0.96894
   29  C   1.06937   0.97373   0.96707   0.96903
   30  C   1.08908   0.97346   0.96117   0.98272

 **********************
 *                    *
 * JOB ENDED NORMALLY *
 *                    *
 **********************



 TOTAL JOB TIME:             0.98 SECONDS

 == MOPAC DONE ==


          MOPAC Job: "./tetraceneTraj/tetracene_1205.mop" ended normally on Feb 15, 2023, at 11:31.

rm: cannot remove ./tetraceneTraj/tetracene_1205.cim: No such file or directory
rm: cannot remove ./tetraceneTraj/tetracene_1205.end: No such file or directory
rm: cannot remove ./tetraceneTraj/tetracene_1205.log: No such file or directory
rm: cannot remove ./tetraceneTraj/tetracene_1205.temp: No such file or directory
rm: cannot remove ./tetraceneTraj/tetracene_1205.ple: No such file or directory
rm: cannot remove ./tetraceneTraj/tetracene_1205.sts: No such file or directory
