 *******************************************************************************
 ** Site#:    0         For non-commercial use only    Version 20.173L 64BITS **
 *******************************************************************************
 ** Cite this program as: MOPAC2016, Version: 20.173L, James J. P. Stewart,   **
 ** Stewart Computational Chemistry, web-site: HTTP://OpenMOPAC.net.          **
 *******************************************************************************
 **                                                                           **
 **                                MOPAC2016                                  **
 **                                                                           **
 *******************************************************************************

                              INDO CALCULATION RESULTS

 *******************************************************************************
 *  CALCULATION DONE:                                Wed Feb 15 11:29:37 2023  *
 *  INDO       - The INDO Hamiltonian to be used
 *
 *
 *
 *                 CHARGE ON SYSTEM = 0
 *
 *
 *
 *  C.I.=(N,M) - 3 DOUBLY FILLED LEVELS USED IN A C.I. INVOLVING 6 M.O.'S
 *  T=         - A TIME OF 172800.0 SECONDS REQUESTED
 *  DUMP=N     - RESTART FILE WRITTEN EVERY 7200.0 SECONDS REQUESTED
 *  RELSCF     - DEFAULT SCF CRITERION MULTIPLIED BY 0.0000
 *              (DEFAULT SCF CRITERION = 0.00010)
 *  ALLVEC     - PRINT ALL EIGENVECTORS
 **********
 *  WARNING: Specified print options may not behave as expected with INDO
 **********
 *******************************************************************************
INDO C.I.=(6,3) AllVEC CHARGE=0 RELSCF=0.000001


   ATOM   CHEMICAL          X               Y               Z
  NUMBER   SYMBOL      (ANGSTROMS)     (ANGSTROMS)     (ANGSTROMS)
 
     1       C         18.48201075  *  19.50817326  *  22.34004525  *
     2       C         19.86399792  *  19.44249090  *  22.32324347  *
     3       C         20.67029421  *  20.66313308  *  22.41261705  *
     4       C         19.98622966  *  21.94799745  *  22.38268255  *
     5       C         18.49630647  *  21.97293483  *  22.43758246  *
     6       C         17.77862911  *  20.78845461  *  22.34638749  *
     7       C         22.06863484  *  20.59348762  *  22.49257234  *
     8       C         20.74086801  *  23.15352023  *  22.43637655  *
     9       C         22.16131191  *  23.09104822  *  22.59519492  *
    10       C         22.85835902  *  21.78813746  *  22.58264860  *
    11       C         24.29429652  *  21.84231999  *  22.62826106  *
    12       H         24.89491050  *  20.92873258  *  22.45831427  *
    13       C         22.91469809  *  24.32815480  *  22.59821842  *
    14       H         22.59063307  *  19.62243932  *  22.45391500  *
    15       H         17.83682190  *  18.57691776  *  22.18331543  *
    16       H         20.30204911  *  18.43613687  *  22.22170989  *
    17       H         17.97274792  *  22.93265305  *  22.46587123  *
    18       H         16.71486966  *  20.86542364  *  22.17895565  *
    19       H         20.15837521  *  24.09472996  *  22.39803224  *
    20       H         22.37510389  *  25.28003897  *  22.52396486  *
    21       C         26.49558045  *  23.08574731  *  22.51203965  *
    22       C         27.16320282  *  24.27734416  *  22.45294293  *
    23       C         26.51047038  *  25.56089611  *  22.60210116  *
    24       C         25.12271865  *  25.56809849  *  22.62446730  *
    25       H         27.04088050  *  22.20563641  *  22.34340017  *
    26       H         28.24566745  *  24.27458202  *  22.31519855  *
    27       H         27.11099908  *  26.49155763  *  22.48467671  *
    28       H         24.59812126  *  26.50705562  *  22.75671381  *
    29       C         25.07249126  *  23.02797336  *  22.67819718  *
    30       C         24.33323981  *  24.34195374  *  22.65654807  *
 


          CARTESIAN COORDINATES 

    NO.       ATOM           X           Y           Z

     1         C         18.4820     19.5082     22.3400
     2         C         19.8640     19.4425     22.3232
     3         C         20.6703     20.6631     22.4126
     4         C         19.9862     21.9480     22.3827
     5         C         18.4963     21.9729     22.4376
     6         C         17.7786     20.7885     22.3464
     7         C         22.0686     20.5935     22.4926
     8         C         20.7409     23.1535     22.4364
     9         C         22.1613     23.0910     22.5952
    10         C         22.8584     21.7881     22.5826
    11         C         24.2943     21.8423     22.6283
    12         H         24.8949     20.9287     22.4583
    13         C         22.9147     24.3282     22.5982
    14         H         22.5906     19.6224     22.4539
    15         H         17.8368     18.5769     22.1833
    16         H         20.3020     18.4361     22.2217
    17         H         17.9727     22.9327     22.4659
    18         H         16.7149     20.8654     22.1790
    19         H         20.1584     24.0947     22.3980
    20         H         22.3751     25.2800     22.5240
    21         C         26.4956     23.0857     22.5120
    22         C         27.1632     24.2773     22.4529
    23         C         26.5105     25.5609     22.6021
    24         C         25.1227     25.5681     22.6245
    25         H         27.0409     22.2056     22.3434
    26         H         28.2457     24.2746     22.3152
    27         H         27.1110     26.4916     22.4847
    28         H         24.5981     26.5071     22.7567
    29         C         25.0725     23.0280     22.6782
    30         C         24.3332     24.3420     22.6565

           Empirical Formula: C18 H12  =    30 atoms



      MOLECULAR POINT GROUP   :   Cs  


      RHF CALCULATION, NO. OF DOUBLY OCCUPIED LEVELS = 42

 WARNING: INDO only performs single-point calculations
  SCF CRITERION =    0.1000E-09

 Summary of symmetry occupancy in each shell:

 SHELL     
    1   42
    v   42
 TOTAL  84




    ROOT NO.    1           2           3           4           5           6

           -44.34261   -42.88462   -40.28056   -36.85203   -35.52216   -34.13519
  
  
  S  C   1   0.12592    -0.19676    -0.27742     0.24697    -0.06549     0.11842
 PX  C   1   0.03488    -0.04857    -0.04931     0.00930    -0.04948     0.08623
 PY  C   1   0.04498    -0.06760    -0.08660     0.06476     0.02238    -0.04365
 PZ  C   1  -0.00024     0.00075     0.00220    -0.00369     0.00150    -0.00308
  
  S  C   2   0.15989    -0.22008    -0.23315     0.10654    -0.17929     0.27874
 PX  C   2  -0.00381     0.02322     0.07454    -0.11122    -0.03687     0.03192
 PY  C   2   0.06363    -0.08080    -0.06583     0.00143    -0.01678     0.01511
 PZ  C   2   0.00360    -0.00428    -0.00253    -0.00187    -0.00254     0.00264
  
  S  C   3   0.28442    -0.28869    -0.08449    -0.18196    -0.17052     0.19994
 PX  C   3   0.00481     0.04363     0.14203    -0.13907    -0.07219     0.05066
 PY  C   3   0.05611    -0.03034     0.05944    -0.09258     0.09714    -0.13490
 PZ  C   3   0.00136     0.00149     0.00810    -0.00804    -0.00023    -0.00254
  
  S  C   4   0.27897    -0.28193    -0.08191    -0.15838     0.17543    -0.20804
 PX  C   4   0.05114    -0.00327     0.12695    -0.15990    -0.02983     0.06607
 PY  C   4  -0.03040     0.05692     0.08574    -0.04829     0.11868    -0.12386
 PZ  C   4   0.00753    -0.00580     0.00326    -0.00880     0.00578    -0.00640
  
  S  C   5   0.15461    -0.21360    -0.23106     0.13348     0.17518    -0.27122
 PX  C   5   0.04737    -0.05019    -0.01095    -0.05614     0.03348    -0.02867
 PY  C   5  -0.03890     0.06483     0.09924    -0.09180     0.02384    -0.02154
 PZ  C   5  -0.00370     0.00613     0.00911    -0.00790    -0.00283     0.00514
  
  S  C   6   0.12485    -0.19576    -0.27882     0.26011     0.06437    -0.11844
 PX  C   6   0.05529    -0.08110    -0.09715     0.05854     0.00526    -0.00504
 PY  C   6   0.00384    -0.00300     0.00488    -0.01711     0.05181    -0.09225
 PZ  C   6   0.00107    -0.00128    -0.00065    -0.00118     0.00148    -0.00248
  
  S  C   7   0.24114    -0.14925     0.13742    -0.23842    -0.29123     0.19442
 PX  C   7  -0.03818     0.06837     0.04428     0.07932    -0.01261    -0.06547
 PY  C   7   0.07952    -0.02655     0.08504    -0.06316     0.00045    -0.04094
 PZ  C   7  -0.00094     0.00324     0.00422     0.00322     0.00120    -0.00583
  
  S  C   8   0.24021    -0.14198     0.14499    -0.20258     0.31169    -0.21320
 PX  C   8   0.04671     0.01654     0.09621    -0.00428     0.01129     0.06826
 PY  C   8  -0.07431     0.06992    -0.01234     0.10234     0.00982     0.03942
 PZ  C   8   0.00538    -0.00087     0.00735    -0.00238     0.00598     0.00072
  
  S  C   9   0.32118    -0.02375     0.31055     0.01436     0.21066    -0.02370
 PX  C   9   0.01752     0.08126     0.03071     0.18519    -0.08155     0.07167
 PY  C   9  -0.04977     0.04894    -0.03623     0.10622     0.13079     0.02362
 PZ  C   9  -0.00957     0.00550    -0.00817     0.01190    -0.00957     0.00514
  
  S  C  10   0.31590    -0.02513     0.30333    -0.00337    -0.21662     0.01725
 PX  C  10  -0.03495     0.08539    -0.01688     0.18807    -0.06876    -0.04352
 PY  C  10   0.04727     0.04129     0.05228     0.10796     0.11476    -0.03995
 PZ  C  10  -0.00457     0.00463    -0.00251     0.01156     0.00310    -0.00192
  
  S  C  11   0.22774     0.12692     0.16732     0.23776    -0.30442    -0.15487
 PX  C  11  -0.04296     0.03185    -0.09058    -0.00381    -0.00134    -0.08253
 PY  C  11   0.06498     0.06584     0.02214     0.10229     0.00894    -0.03230
 PZ  C  11  -0.00490    -0.00169    -0.00300    -0.00014     0.00939     0.00415
  
  S  H  12   0.07094     0.04245     0.04481     0.06724    -0.15507    -0.08703
  
  S  C  13   0.22572     0.11984     0.17370     0.24176     0.29534     0.17214
 PX  C  13   0.02972     0.07066    -0.02881     0.08213    -0.02129     0.08394
 PY  C  13  -0.07244    -0.01022    -0.08770    -0.06038     0.00562     0.04661
 PZ  C  13  -0.00059     0.00179    -0.00107     0.00462    -0.00220     0.00330
  
  S  H  14   0.07186    -0.04346     0.03795    -0.06533    -0.14692     0.09728
  
  S  H  15   0.03036    -0.05009    -0.07923     0.08517    -0.02557     0.04878
  
  S  H  16   0.04680    -0.06348    -0.06553     0.02700    -0.08776     0.13518
  
  S  H  17   0.04656    -0.06246    -0.06400     0.03618     0.09021    -0.13646
  
  S  H  18   0.03323    -0.05474    -0.08666     0.09655     0.03029    -0.05844
  
  S  H  19   0.07160    -0.04267     0.03768    -0.04956     0.15494    -0.10585
  
  S  H  20   0.07043     0.03561     0.05184     0.06739     0.15553     0.08327
  
  S  C  21   0.17002     0.26986    -0.19859    -0.10754    -0.19124    -0.29999
 PX  C  21  -0.04850    -0.05684     0.00223    -0.06393     0.03528     0.01799
 PY  C  21   0.04019     0.07849    -0.08587    -0.09194     0.03565     0.02630
 PZ  C  21   0.00249     0.00361    -0.00124     0.00317     0.00047     0.00296
  
  S  C  22   0.13986     0.25249    -0.24835    -0.24931    -0.05169    -0.12658
 PX  C  22  -0.05861    -0.09835     0.08006     0.04960     0.00008    -0.00005
 PY  C  22  -0.00652    -0.00710    -0.00333    -0.02328     0.06766     0.11407
 PZ  C  22   0.00604     0.01077    -0.00993    -0.00797     0.00136     0.00168
  
  S  C  23   0.13075     0.23679    -0.23466    -0.23957     0.09646     0.13914
 PX  C  23  -0.03335    -0.05333     0.03712     0.00835    -0.05321    -0.09119
 PY  C  23  -0.04892    -0.08519     0.07640     0.06257     0.01753     0.04175
 PZ  C  23  -0.00337    -0.00650     0.00743     0.00968     0.00045     0.00207
  
  S  C  24   0.15908     0.25148    -0.18394    -0.10039     0.20530     0.30267
 PX  C  24   0.01014     0.03869    -0.07197    -0.10970    -0.03033    -0.03078
 PY  C  24  -0.06119    -0.08845     0.04755    -0.00361    -0.01486    -0.01330
 PZ  C  24  -0.00005    -0.00026     0.00097     0.00270     0.00395     0.00664
  
  S  H  25   0.05470     0.08518    -0.06036    -0.03010    -0.10414    -0.15877
  
  S  H  26   0.03756     0.07143    -0.07841    -0.09427    -0.02501    -0.06169
  
  S  H  27   0.03279     0.06261    -0.06942    -0.08530     0.03853     0.05887
  
  S  H  28   0.04842     0.07379    -0.04973    -0.02189     0.10382     0.15142
  
  S  C  29   0.26535     0.29796    -0.03335     0.18495    -0.19186    -0.19411
 PX  C  29  -0.03605     0.02315    -0.12545    -0.15421    -0.03649    -0.09367
 PY  C  29   0.02955     0.06654    -0.07407    -0.05693     0.11497     0.10677
 PZ  C  29  -0.01187    -0.01464     0.00499    -0.00289     0.01291     0.01594
  
  S  C  30   0.26135     0.28934    -0.02522     0.18839     0.17487     0.21938
 PX  C  30   0.00557     0.06905    -0.12986    -0.12960    -0.06850    -0.04727
 PY  C  30  -0.04932    -0.02067    -0.06351    -0.09974     0.10178     0.12729
 PZ  C  30  -0.00537    -0.00561     0.00064    -0.00191    -0.00275    -0.00137




    ROOT NO.    7           8           9          10          11          12

           -31.81147   -31.27849   -28.93855   -28.14786   -26.78315   -26.04035
  
  
  S  C   1   0.12501     0.27687    -0.16859     0.27660    -0.02946     0.18436
 PX  C   1   0.12679    -0.05281    -0.12372    -0.14294     0.04001     0.06850
 PY  C   1  -0.07715     0.00980     0.09309    -0.02119    -0.07480    -0.09979
 PZ  C   1  -0.00410    -0.00922     0.00673    -0.01385    -0.00236    -0.00917
  
  S  C   2   0.29485     0.02328    -0.18607    -0.09532     0.12720     0.03129
 PX  C   2  -0.01104    -0.13572     0.12885    -0.12746     0.06797    -0.19302
 PY  C   2  -0.00327    -0.07857     0.05716    -0.10922    -0.09296    -0.10077
 PZ  C   2   0.00020    -0.00653     0.00586    -0.00866    -0.00347    -0.00920
  
  S  C   3   0.11976    -0.22299     0.09740    -0.14715    -0.09266    -0.18962
 PX  C   3  -0.06629     0.02357     0.15660     0.14319     0.07984    -0.07577
 PY  C   3  -0.08796    -0.03437    -0.02010     0.08391    -0.19476     0.10635
 PZ  C   3  -0.00837     0.00224     0.00866     0.01042    -0.00174     0.00120
  
  S  C   4  -0.02840    -0.26450    -0.13825    -0.11686    -0.09633     0.17871
 PX  C   4   0.09696     0.02353    -0.02877     0.16990    -0.11519    -0.06019
 PY  C   4  -0.01297     0.02638    -0.10164     0.10680     0.17300     0.11599
 PZ  C   4  -0.00078    -0.00410    -0.00352     0.00281    -0.00362     0.00467
  
  S  C   5  -0.27583    -0.09051     0.14903    -0.16834     0.12514    -0.01346
 PX  C   5   0.06255    -0.13083    -0.15659    -0.11450    -0.03651     0.18719
 PY  C   5   0.03122    -0.06922    -0.07542    -0.02677     0.10927     0.09781
 PZ  C   5   0.00792    -0.00231    -0.00701     0.00071    -0.00002     0.00514
  
  S  C   6  -0.22527     0.21710     0.23340     0.20828    -0.02982    -0.18711
 PX  C   6   0.01009    -0.02199    -0.04652    -0.08753    -0.04171     0.06694
 PY  C   6  -0.11618    -0.09530     0.12080    -0.15505     0.07269    -0.10490
 PZ  C   6  -0.00178    -0.00747     0.00042    -0.01407     0.00017     0.00096
  
  S  C   7  -0.15437    -0.01823     0.26192     0.08810     0.18426    -0.01481
 PX  C   7  -0.13990     0.12211    -0.04988     0.03557     0.10682     0.21229
 PY  C   7  -0.07886     0.06547    -0.01675     0.09538    -0.15891     0.10917
 PZ  C   7  -0.01058     0.00986    -0.00367     0.00516    -0.00338     0.01719
  
  S  C   8   0.15397     0.01890    -0.21211     0.16168     0.17799     0.00479
 PX  C   8   0.09024     0.17275     0.06481     0.08308    -0.07113    -0.20265
 PY  C   8   0.05063     0.08460     0.03279    -0.03801     0.17675    -0.10126
 PZ  C   8   0.00766     0.01281     0.00223     0.00672    -0.00148    -0.01494
  
  S  C   9   0.16010     0.28526    -0.00629     0.01813    -0.08562    -0.17683
 PX  C   9  -0.07268     0.01604     0.07249    -0.19644    -0.11007     0.06518
 PY  C   9   0.14918     0.00249     0.04918    -0.09995     0.20965    -0.12752
 PZ  C   9  -0.00874    -0.00679     0.00519    -0.01530    -0.00466     0.00898
  
  S  C  10  -0.26826     0.21411    -0.00603     0.00881    -0.06774     0.20842
 PX  C  10  -0.06555    -0.01787    -0.13158    -0.16583     0.12035     0.06229
 PY  C  10   0.10940     0.05513    -0.08118    -0.08758    -0.21309    -0.10462
 PZ  C  10   0.00091     0.00053    -0.00717    -0.01172    -0.00638     0.00120
  
  S  C  11  -0.17897    -0.02387    -0.26186    -0.09798     0.17708    -0.00949
 PX  C  11   0.12876    -0.14226    -0.04107     0.08923     0.07693    -0.20778
 PY  C  11   0.06841    -0.06324    -0.03265    -0.03621    -0.17086    -0.11367
 PZ  C  11   0.00585    -0.00259     0.00258    -0.00277    -0.01671    -0.00550
  
  S  H  12  -0.07673    -0.02463    -0.12021    -0.00122     0.20972    -0.01511
  
  S  C  13   0.18760     0.04592     0.22930    -0.15884     0.16163     0.00410
 PX  C  13  -0.08275    -0.16262     0.05892    -0.01313    -0.11826     0.19844
 PY  C  13  -0.03824    -0.10311     0.05001     0.07911     0.14461     0.11593
 PZ  C  13  -0.00458    -0.00603     0.00154    -0.00426    -0.00846     0.00766
  
  S  H  14  -0.07146    -0.00916     0.11890     0.00467     0.21561    -0.00487
  
  S  H  15   0.05495     0.14319    -0.08521     0.19055     0.00819     0.11693
  
  S  H  16   0.14153     0.02075    -0.09051    -0.01944     0.13613     0.02560
  
  S  H  17  -0.13465    -0.04358     0.07603    -0.06570     0.13750    -0.00853
  
  S  H  18  -0.12130     0.11682     0.14894     0.15049     0.01233    -0.14149
  
  S  H  19   0.06961    -0.00207    -0.10246     0.03365     0.21162     0.01541
  
  S  H  20   0.09512     0.01647     0.11682    -0.03286     0.20287     0.00383
  
  S  C  21   0.25915     0.00120     0.18418     0.11608     0.10181     0.04416
 PX  C  21   0.01667     0.15612     0.11322    -0.14694     0.04604     0.19241
 PY  C  21  -0.00130     0.08251     0.06254    -0.05400    -0.11640     0.09949
 PZ  C  21  -0.00502    -0.01393    -0.01298     0.01469    -0.01111    -0.02109
  
  S  C  22   0.10039     0.29626     0.14069    -0.25966    -0.02967     0.17129
 PX  C  22   0.00733     0.03806     0.02256    -0.10546     0.04950     0.06293
 PY  C  22  -0.14336     0.05877    -0.16606    -0.11435    -0.05365    -0.13379
 PZ  C  22  -0.00318     0.00026    -0.00513     0.00623    -0.00885    -0.00950
  
  S  C  23  -0.21300     0.22291    -0.24400    -0.18987     0.00303    -0.20770
 PX  C  23   0.08239     0.10473     0.06754    -0.17707    -0.03427     0.04656
 PY  C  23  -0.05010    -0.04131    -0.08035     0.01920     0.08361    -0.09244
 PZ  C  23   0.00129    -0.01836     0.00292     0.02341     0.00372     0.00240
  
  S  C  24  -0.24345    -0.10721    -0.13175     0.17055     0.12478    -0.00263
 PX  C  24  -0.06384     0.13106    -0.15710    -0.07175    -0.05501    -0.19797
 PY  C  24  -0.03137     0.07312    -0.08263    -0.06419     0.10590    -0.09397
 PZ  C  24  -0.00404    -0.00910    -0.00001     0.01097     0.00652     0.00488
  
  S  H  25   0.13503     0.00785     0.09645     0.04061     0.13312     0.03530
  
  S  H  26   0.05375     0.16625     0.08386    -0.19124     0.01500     0.12631
  
  S  H  27  -0.10171     0.12091    -0.13780    -0.14104     0.03137    -0.13625
  
  S  H  28  -0.11571    -0.05329    -0.05969     0.07388     0.14071     0.00832
  
  S  C  29   0.09066    -0.24310    -0.10088     0.12192    -0.09124    -0.19527
 PX  C  29   0.09936     0.00199     0.07797     0.16145     0.10579    -0.03741
 PY  C  29   0.01709    -0.02880     0.13173     0.06088    -0.17947     0.10926
 PZ  C  29  -0.00991     0.00681    -0.00079    -0.00928    -0.00733     0.00710
  
  S  C  30  -0.00998    -0.25943     0.14419     0.07668    -0.10883     0.18186
 PX  C  30  -0.06133    -0.05168    -0.11012     0.17587    -0.08223    -0.07025
 PY  C  30  -0.07255    -0.01252     0.03938     0.09481     0.17941     0.11977
 PZ  C  30  -0.00326     0.00015    -0.00527     0.00117    -0.00326    -0.00264




    ROOT NO.   13          14          15          16          17          18

           -25.27654   -24.04025   -22.81646   -21.48282   -20.75419   -19.32515
  
  
  S  C   1  -0.01044     0.14602    -0.01610    -0.16322    -0.05288    -0.01323
 PX  C   1   0.04381    -0.23242     0.00454     0.00616     0.21688     0.17773
 PY  C   1  -0.13913     0.00369    -0.19148     0.11044    -0.12334     0.19714
 PZ  C   1  -0.00719    -0.01223    -0.01408     0.00902    -0.00007     0.02970
  
  S  C   2   0.16432    -0.17982     0.12396     0.11220     0.11324     0.02827
 PX  C   2   0.06719     0.01574     0.06824     0.17762    -0.13240    -0.13275
 PY  C   2  -0.17197    -0.00017    -0.20620     0.08723    -0.14976     0.08455
 PZ  C   2  -0.00872    -0.00132    -0.01488     0.00447    -0.01239     0.01722
  
  S  C   3  -0.11532     0.08046     0.00457     0.10839    -0.05471    -0.14994
 PX  C   3   0.13987     0.14472     0.15299    -0.10267    -0.02197    -0.02483
 PY  C   3  -0.18550     0.08933    -0.01166    -0.12809     0.15448    -0.09392
 PZ  C   3   0.00209     0.00575     0.00380    -0.01759     0.00338     0.01173
  
  S  C   4  -0.10388     0.09923    -0.01767    -0.09017    -0.04509    -0.15662
 PX  C   4  -0.07839     0.15137     0.10435     0.16129     0.10791    -0.06746
 PY  C   4   0.22752     0.08245     0.13219     0.00763    -0.10106     0.03819
 PZ  C   4  -0.00082    -0.00037     0.00357    -0.00813     0.00638     0.00577
  
  S  C   5   0.15817    -0.19137     0.09610    -0.13241     0.11489     0.01653
 PX  C   5  -0.08383     0.02808    -0.15556    -0.15298    -0.18306    -0.02482
 PY  C   5   0.16170     0.01959     0.15701    -0.09764    -0.02334    -0.18423
 PZ  C   5   0.00143     0.00052     0.00277    -0.00697     0.00208     0.00106
  
  S  C   6  -0.02623     0.12425     0.01312     0.16050    -0.05073     0.01330
 PX  C   6  -0.09026    -0.11537    -0.18147    -0.12053     0.00646     0.24988
 PY  C   6   0.10081    -0.20737     0.11484     0.05143     0.24426     0.05176
 PZ  C   6  -0.00224    -0.01981    -0.01017    -0.01062     0.01330     0.03308
  
  S  C   7   0.13146     0.10960    -0.08410    -0.19941    -0.07551     0.13113
 PX  C   7   0.02241    -0.11211    -0.19480    -0.08759     0.03429     0.15986
 PY  C   7  -0.11135    -0.07117     0.04469    -0.04399     0.22512    -0.01380
 PZ  C   7  -0.00320    -0.01268    -0.00814    -0.00990     0.01049     0.01561
  
  S  C   8   0.12787     0.10767    -0.04786     0.20199    -0.08270     0.15997
 PX  C   8  -0.09589    -0.15153    -0.05920     0.06247     0.20023     0.09928
 PY  C   8   0.07211    -0.06318    -0.16863     0.05226    -0.10851     0.12213
 PZ  C   8  -0.00402    -0.01599    -0.00592     0.00143     0.01656     0.01519
  
  S  C   9  -0.00720    -0.23607     0.01633     0.00660    -0.00111     0.02768
 PX  C   9   0.01032    -0.05906     0.09161    -0.16441    -0.17616    -0.17071
 PY  C   9   0.00906     0.07412    -0.21164    -0.06221    -0.07962    -0.08614
 PZ  C   9   0.00203    -0.00107     0.00658    -0.01534    -0.01618    -0.00905
  
  S  C  10  -0.00122    -0.21285    -0.00808    -0.00825     0.00568    -0.00412
 PX  C  10   0.00331     0.03207    -0.10861     0.19585    -0.16114    -0.16352
 PY  C  10  -0.00766    -0.10784     0.21583     0.09227    -0.10498    -0.07514
 PZ  C  10   0.00268    -0.00564     0.00636     0.00833    -0.01662    -0.00323
  
  S  C  11  -0.12263     0.10726    -0.05132     0.22708     0.07064    -0.13102
 PX  C  11  -0.08547     0.15950     0.06102    -0.06681     0.19221     0.09421
 PY  C  11   0.07614     0.05265     0.17467    -0.07509    -0.12016     0.13290
 PZ  C  11   0.01049     0.00320     0.01388    -0.00579    -0.01424     0.01774
  
  S  H  12  -0.13662     0.07901    -0.09873     0.12562     0.17389    -0.11185
  
  S  C  13  -0.11390     0.10428    -0.08100    -0.19872     0.07788    -0.17408
 PX  C  13   0.02138     0.14620     0.19264     0.03355    -0.00459     0.14349
 PY  C  13  -0.10845     0.11013    -0.03844     0.02226     0.22401    -0.02089
 PZ  C  13   0.00244     0.00421     0.01339    -0.00124    -0.01150     0.01056
  
  S  H  14   0.13661     0.06294    -0.12705    -0.09691    -0.15970     0.12902
  
  S  H  15   0.04948     0.15596     0.09464    -0.14768    -0.04301    -0.20742
  
  S  H  16   0.20149    -0.08725     0.20491     0.04793     0.11543    -0.08053
  
  S  H  17   0.19843    -0.09516     0.18792    -0.07311     0.10256    -0.09676
  
  S  H  18   0.04615     0.13072     0.13233     0.17185    -0.02149    -0.17937
  
  S  H  19   0.13883     0.06939    -0.09540     0.10409    -0.17303     0.11661
  
  S  H  20  -0.12543     0.06858    -0.12586    -0.09306     0.17051    -0.15209
  
  S  C  21  -0.15339    -0.17664     0.07464    -0.12655    -0.10489    -0.04049
 PX  C  21  -0.11494    -0.01443     0.14334     0.14909    -0.17847    -0.01065
 PY  C  21   0.17220    -0.01876    -0.15280     0.13890    -0.01424    -0.14924
 PZ  C  21   0.02373     0.00291    -0.02842    -0.01365     0.02816    -0.00541
  
  S  C  22   0.02505     0.13776     0.00667     0.16788     0.05226     0.00893
 PX  C  22  -0.10594     0.13457     0.17737     0.08115     0.00101     0.25663
 PY  C  22   0.10499     0.19531    -0.08322    -0.05498     0.22579     0.04884
 PZ  C  22   0.01838    -0.00775    -0.02723    -0.01037     0.01173    -0.03165
  
  S  C  23   0.00349     0.11261     0.00705    -0.18460     0.03252    -0.01578
 PX  C  23   0.04383     0.23948     0.01803    -0.02987     0.19240     0.17309
 PY  C  23  -0.14934    -0.01532     0.18289    -0.16010    -0.13469     0.16153
 PZ  C  23  -0.00576    -0.02638     0.00090     0.00648    -0.02145    -0.01097
  
  S  C  24  -0.17615    -0.18290     0.09908     0.12110    -0.10882     0.00055
 PX  C  24   0.08289    -0.04848    -0.07621    -0.16476    -0.11426    -0.17558
 PY  C  24  -0.18331    -0.02199     0.18808    -0.10780    -0.15776     0.06055
 PZ  C  24  -0.01163    -0.01083     0.01245     0.01161    -0.01227     0.01429
  
  S  H  25  -0.21495    -0.08688     0.17579    -0.08739    -0.11210     0.06437
  
  S  H  26  -0.05394     0.15779     0.12340     0.14450     0.02733     0.20061
  
  S  H  27  -0.05957     0.13417     0.11097    -0.20016     0.01304     0.16491
  
  S  H  28  -0.21921    -0.09141     0.18168     0.05008    -0.11088     0.09656
  
  S  C  29   0.11708     0.09435    -0.00172    -0.10752     0.04418     0.14704
 PX  C  29  -0.07919    -0.15365    -0.09893    -0.15359     0.11197    -0.08802
 PY  C  29   0.23089    -0.08120    -0.12605    -0.01374    -0.08462     0.02448
 PZ  C  29   0.00806     0.00622     0.00158     0.01300    -0.00613     0.01036
  
  S  C  30   0.11797     0.11609     0.01435     0.08317     0.04786     0.15245
 PX  C  30   0.14630    -0.14999    -0.14572     0.13198    -0.00747     0.01724
 PY  C  30  -0.19271    -0.07343     0.00088     0.14174     0.14600    -0.05964
 PZ  C  30   0.00246    -0.00243     0.00515     0.00467    -0.01116     0.01437




    ROOT NO.   19          20          21          22          23          24

           -18.44877   -17.29143   -16.87270   -16.62264   -16.10424   -15.23399
  
  
  S  C   1  -0.16953    -0.03748     0.08606    -0.09461     0.02899     0.06496
 PX  C   1   0.10272     0.16604     0.08447    -0.00286     0.14920     0.13367
 PY  C   1   0.12467    -0.14809    -0.05940     0.06319     0.18276     0.07419
 PZ  C   1   0.00579    -0.01310     0.00719    -0.00488     0.04351     0.02708
  
  S  C   2   0.16247    -0.00882    -0.02825     0.06105     0.00750     0.02916
 PX  C   2   0.08543    -0.17078    -0.13976     0.07604    -0.14811    -0.12754
 PY  C   2  -0.02032    -0.17427     0.18989    -0.14190    -0.06584     0.25802
 PZ  C   2  -0.01111    -0.02456     0.02692    -0.02025     0.02216     0.04269
  
  S  C   3  -0.03734    -0.03001     0.18303    -0.09674    -0.08956    -0.00587
 PX  C   3  -0.16872    -0.04449     0.04449    -0.02961     0.23303    -0.12859
 PY  C   3  -0.04006     0.29336     0.00041     0.01876    -0.03577    -0.10929
 PZ  C   3  -0.02581    -0.01173     0.01710    -0.00506     0.03589     0.00317
  
  S  C   4   0.04391     0.10663    -0.18744     0.10899    -0.07913    -0.02527
 PX  C   4   0.14302     0.17980     0.10035    -0.06273     0.06693     0.17390
 PY  C   4   0.08397    -0.14271    -0.12453     0.05898     0.20268     0.12390
 PZ  C   4  -0.01939    -0.01185    -0.00116    -0.00562     0.01222     0.01600
  
  S  C   5  -0.17861    -0.02947     0.01885    -0.06430    -0.00271    -0.02454
 PX  C   5  -0.04487    -0.12531    -0.20438     0.14271    -0.09005    -0.16079
 PY  C   5  -0.12403    -0.14352     0.15180    -0.11349    -0.17286     0.23281
 PZ  C   5  -0.01994    -0.01433     0.01724    -0.01944     0.01053     0.02845
  
  S  C   6   0.16024     0.01342    -0.08121     0.08735     0.06531    -0.04332
 PX  C   6  -0.16576    -0.06105     0.00738    -0.07202     0.23891    -0.07028
 PY  C   6   0.03994     0.22845     0.02826    -0.01272     0.04460    -0.08870
 PZ  C   6  -0.02659    -0.00520     0.01322    -0.02248     0.04975     0.00700
  
  S  C   7  -0.09794     0.06632    -0.02732     0.02278     0.07540    -0.01240
 PX  C   7   0.14915     0.12437    -0.14319     0.09184    -0.16035     0.10991
 PY  C   7   0.09845    -0.02781     0.28506     0.01540     0.00392    -0.17283
 PZ  C   7   0.00632    -0.00877     0.02042     0.01314     0.00298     0.00122
  
  S  C   8   0.10913     0.01712     0.05603    -0.05035     0.06622     0.02671
 PX  C   8  -0.17037     0.10169    -0.11508    -0.09440    -0.14877     0.05107
 PY  C   8  -0.03915    -0.07048     0.28828    -0.05752    -0.07970    -0.23734
 PZ  C   8  -0.03015    -0.00343    -0.01318    -0.00910    -0.01490     0.01635
  
  S  C   9  -0.14975    -0.07855    -0.19540    -0.05037    -0.08056     0.05564
 PX  C   9   0.02802    -0.12451    -0.00086     0.08505     0.06710    -0.05537
 PY  C   9  -0.07802     0.25628    -0.01625    -0.04681    -0.12811    -0.02673
 PZ  C   9  -0.00585    -0.01563     0.00369     0.01826     0.00380     0.00532
  
  S  C  10   0.14638    -0.15417     0.12790     0.08405    -0.05864    -0.06868
 PX  C  10   0.06521     0.09911     0.05263    -0.04817    -0.10879     0.02200
 PY  C  10  -0.07754    -0.22875    -0.12256    -0.00485     0.09244     0.05490
 PZ  C  10  -0.00511    -0.01729     0.01393     0.02134     0.00375     0.00373
  
  S  C  11  -0.08852     0.03797     0.00936    -0.05705     0.06808     0.00584
 PX  C  11  -0.19091    -0.01081    -0.13082    -0.02502     0.16006     0.01619
 PY  C  11  -0.06911    -0.00364     0.12209     0.22858     0.11058    -0.11798
 PZ  C  11  -0.01253     0.00125     0.02927     0.05181     0.00935    -0.00770
  
  S  H  12  -0.07368     0.01752    -0.15556    -0.21928     0.03008     0.09672
  
  S  C  13   0.08056     0.03618     0.01067     0.05141     0.08979     0.02735
 PX  C  13   0.15165    -0.04312    -0.07223    -0.18603     0.14705     0.15146
 PY  C  13   0.11618    -0.10675     0.17558     0.16426     0.08653    -0.04099
 PZ  C  13  -0.00355     0.00392    -0.00836    -0.00055    -0.00071     0.02280
  
  S  H  14  -0.06113     0.10902    -0.29375     0.03453    -0.02395     0.17223
  
  S  H  15  -0.21041     0.00589     0.04269    -0.08901    -0.19511    -0.09144
  
  S  H  16   0.12350     0.07384    -0.21809     0.16921    -0.00198    -0.24102
  
  S  H  17  -0.15755    -0.07486     0.21457    -0.17645    -0.09157     0.23297
  
  S  H  18   0.21767     0.06777    -0.04533     0.10598    -0.17184     0.03600
  
  S  H  19   0.09388    -0.09029     0.30189    -0.02632     0.04498    -0.18447
  
  S  H  20   0.06069    -0.03998     0.17884     0.23365     0.05178    -0.08692
  
  S  C  21   0.15165    -0.03552     0.00479    -0.05034    -0.01187     0.04211
 PX  C  21  -0.03337     0.18700     0.00355    -0.21537     0.14883    -0.11209
 PY  C  21  -0.10481     0.12749     0.09353     0.19660     0.11431     0.25560
 PZ  C  21  -0.00626    -0.02579     0.01260     0.07537    -0.01856     0.05854
  
  S  C  22  -0.15513     0.01134     0.00911     0.12495     0.05094     0.05272
 PX  C  22  -0.13757     0.05596     0.00958     0.06115    -0.20582    -0.14423
 PY  C  22   0.00671    -0.23712    -0.09500    -0.00427    -0.05166    -0.10613
 PZ  C  22   0.01334    -0.02134     0.00119     0.02092     0.02209     0.04763
  
  S  C  23   0.15888    -0.02658    -0.01467    -0.12018     0.04654    -0.02295
 PX  C  23   0.08503    -0.19422    -0.01972     0.02446    -0.22292     0.10454
 PY  C  23   0.15498     0.14283     0.07867    -0.07646    -0.17659     0.04219
 PZ  C  23  -0.01347     0.02133     0.00876     0.02099     0.00887     0.01760
  
  S  C  24  -0.15680     0.01375    -0.02088     0.05638    -0.00164    -0.04901
 PX  C  24   0.08988     0.18191     0.02454    -0.11192     0.23888    -0.08842
 PY  C  24  -0.02640     0.13752     0.11035     0.26908     0.02346     0.22582
 PZ  C  24  -0.02263     0.00906     0.00911     0.04007    -0.02330     0.02840
  
  S  H  25   0.13248    -0.02407    -0.06863    -0.27596    -0.01975    -0.22590
  
  S  H  26  -0.18779     0.05368     0.01174     0.11018    -0.15369    -0.10720
  
  S  H  27   0.22070    -0.00353     0.03822    -0.10653    -0.20844     0.06720
  
  S  H  28  -0.13214     0.03028     0.06582     0.28436    -0.08119     0.18960
  
  S  C  29  -0.04465     0.03985     0.09253     0.21252    -0.07535     0.00551
 PX  C  29   0.13171    -0.23041    -0.05026     0.08336    -0.12499     0.13170
 PY  C  29   0.11961     0.14109     0.03914    -0.09855    -0.20233     0.03010
 PZ  C  29  -0.01908     0.01780     0.01808     0.03309    -0.00213     0.00838
  
  S  C  30   0.06061     0.02675    -0.05561    -0.22242    -0.08000    -0.03535
 PX  C  30  -0.15065     0.02335     0.02999     0.04251    -0.21946    -0.17929
 PY  C  30  -0.06055    -0.26929    -0.11617    -0.05746     0.00250    -0.06544
 PZ  C  30  -0.01681     0.01705     0.01117     0.02849    -0.01941     0.01463




    ROOT NO.   25          26          27          28          29          30

           -14.95517   -14.81091   -14.67615   -14.50331   -13.78784   -13.38455
  
  
  S  C   1   0.01209     0.03173     0.04052    -0.00309    -0.04938     0.00689
 PX  C   1  -0.25713     0.01736     0.04334     0.02447    -0.16933     0.00129
 PY  C   1   0.03425     0.03334    -0.22432    -0.06057    -0.16454     0.08828
 PZ  C   1   0.02512     0.02645    -0.03798     0.11900    -0.08714    -0.21063
  
  S  C   2  -0.03858     0.01066    -0.11336    -0.01242     0.00601     0.00200
 PX  C   2   0.22905    -0.01435    -0.11749    -0.03013     0.19097    -0.00627
 PY  C   2  -0.13367     0.12117    -0.03446    -0.04478     0.08152     0.01116
 PZ  C   2   0.01154     0.03868    -0.03589     0.16104    -0.06743    -0.24474
  
  S  C   3  -0.00458    -0.03613     0.04719     0.02004     0.00287    -0.00992
 PX  C   3   0.13100    -0.11294     0.04931    -0.00591    -0.24908     0.06728
 PY  C   3  -0.07081    -0.06765     0.14969     0.04744    -0.03719    -0.01126
 PZ  C   3   0.04015     0.03064    -0.05990     0.27969    -0.07635    -0.30413
  
  S  C   4  -0.04190     0.02103     0.01575     0.00559    -0.03169    -0.00077
 PX  C   4  -0.07035     0.08060     0.13741     0.00864    -0.14867     0.04031
 PY  C   4   0.05862     0.07621    -0.08918    -0.04083    -0.20150     0.05865
 PZ  C   4   0.05229     0.04481    -0.07195     0.26547    -0.04698    -0.29113
  
  S  C   5   0.10744     0.00859     0.00616    -0.01108     0.04019     0.00016
 PX  C   5   0.02130    -0.05953    -0.16248     0.00394     0.10378    -0.05067
 PY  C   5  -0.12580     0.12947    -0.22934    -0.05535     0.00817     0.03319
 PZ  C   5   0.04075     0.03671    -0.04468     0.14672    -0.05301    -0.22187
  
  S  C   6   0.00756    -0.02920    -0.02338     0.01097    -0.05806    -0.00024
 PX  C   6   0.27524    -0.02814     0.10828    -0.04604    -0.07816     0.09680
 PY  C   6  -0.02019    -0.06674     0.28262     0.05277     0.03546    -0.03426
 PZ  C   6   0.07303     0.02024     0.00059     0.11344    -0.07069    -0.19744
  
  S  C   7  -0.07153    -0.00776     0.00782     0.00692    -0.01108    -0.00197
 PX  C   7  -0.16634     0.10285    -0.07777    -0.02902     0.23921    -0.03343
 PY  C   7  -0.00958    -0.19817    -0.27836    -0.02446     0.04514     0.02464
 PZ  C   7   0.01353     0.03173    -0.07292     0.26005    -0.00957    -0.16761
  
  S  C   8   0.03209    -0.00337     0.07161     0.00420     0.04877    -0.00350
 PX  C   8   0.17254     0.14186    -0.03021    -0.04494     0.20949    -0.00591
 PY  C   8  -0.07460    -0.21913     0.05468     0.03963     0.19358    -0.06060
 PZ  C   8   0.05110     0.04748    -0.06885     0.24939     0.00730    -0.15212
  
  S  C   9  -0.01333    -0.02859    -0.02223     0.01857     0.00117    -0.00214
 PX  C   9  -0.21114    -0.17958     0.02842    -0.00428    -0.22125     0.02001
 PY  C   9  -0.09516    -0.11859    -0.01774     0.04798    -0.14644     0.02893
 PZ  C   9   0.00686     0.01938    -0.06245     0.32582    -0.01600    -0.01289
  
  S  C  10   0.00180     0.01864    -0.01434    -0.00913     0.02368    -0.00433
 PX  C  10   0.12921     0.12551     0.26857     0.02896    -0.16386     0.01856
 PY  C  10   0.04708     0.06712     0.17689    -0.02569    -0.07451    -0.00635
 PZ  C  10   0.02777     0.05688    -0.03497     0.32798    -0.00267    -0.01978
  
  S  C  11   0.08671     0.01601     0.02155     0.02000    -0.01091     0.01304
 PX  C  11  -0.10981    -0.13059    -0.24064    -0.02865     0.15124    -0.01683
 PY  C  11  -0.10594     0.26391     0.13282    -0.02105     0.17096    -0.04465
 PZ  C  11   0.00752     0.06876    -0.01774     0.25269     0.04838     0.13877
  
  S  H  12   0.05713    -0.25587    -0.19180    -0.02017    -0.07297     0.01448
  
  S  C  13  -0.03149    -0.00540    -0.05267    -0.00267    -0.04427     0.01201
 PX  C  13   0.01234    -0.15542     0.03357     0.01415     0.26510    -0.05654
 PY  C  13   0.20010     0.32063    -0.00759    -0.06097     0.10952    -0.00426
 PZ  C  13   0.00294    -0.00936    -0.04214     0.25367     0.02118     0.14157
  
  S  H  14  -0.08904     0.18778     0.18761     0.00203     0.06108    -0.03025
  
  S  H  15   0.10537    -0.02023     0.17253     0.01763     0.21137    -0.04261
  
  S  H  16   0.17134    -0.09752    -0.06373     0.00563     0.02382     0.00832
  
  S  H  17  -0.05758     0.12628    -0.10992    -0.04715    -0.01457     0.04361
  
  S  H  18  -0.25424     0.00405    -0.09426     0.03378     0.05563    -0.06449
  
  S  H  19  -0.11755    -0.22281     0.08545     0.03976     0.08099    -0.04042
  
  S  H  20   0.12849     0.30471    -0.03352    -0.07065    -0.05373     0.01611
  
  S  C  21   0.04219    -0.01912     0.08533     0.02827     0.00593     0.00735
 PX  C  21   0.04662     0.13964    -0.06884     0.03381     0.14110     0.06570
 PY  C  21   0.22831    -0.15294    -0.04301    -0.04969     0.09109    -0.06065
 PZ  C  21   0.01629    -0.03297     0.00082     0.16951     0.02596     0.26970
  
  S  C  22  -0.02767    -0.04869    -0.00647    -0.00954     0.04628    -0.02235
 PX  C  22  -0.08778     0.06731    -0.16566    -0.03703    -0.20419     0.05113
 PY  C  22  -0.24222     0.02611     0.13867     0.05226    -0.02424     0.00915
 PZ  C  22   0.01406    -0.02383     0.02956     0.14830     0.06618     0.26031
  
  S  C  23   0.01436     0.04244     0.01280     0.02722     0.05399     0.03226
 PX  C  23   0.10795    -0.10639     0.21126     0.05938    -0.02897     0.02081
 PY  C  23   0.26230    -0.00007    -0.11070    -0.05676    -0.10921    -0.00675
 PZ  C  23   0.00505    -0.00577    -0.02475     0.12687     0.02999     0.25535
  
  S  C  24  -0.09734     0.00206     0.00084    -0.00979    -0.04368    -0.01691
 PX  C  24  -0.05854     0.11697    -0.20814    -0.03572     0.07122     0.01139
 PY  C  24   0.04288    -0.17408     0.01112    -0.01538     0.09354    -0.03857
 PZ  C  24   0.00807    -0.01959    -0.01183     0.16472     0.01854     0.26768
  
  S  H  25  -0.12911     0.16713     0.03830     0.04265    -0.01217     0.04466
  
  S  H  26  -0.09235     0.03867    -0.15863    -0.05747    -0.18069     0.00490
  
  S  H  27   0.25963    -0.02790     0.02669    -0.01247    -0.08023    -0.00158
  
  S  H  28   0.01527    -0.17978     0.10108     0.01430     0.02046    -0.01665
  
  S  C  29   0.00199     0.05228    -0.03940    -0.01110     0.00739     0.01076
 PX  C  29  -0.01883    -0.17355     0.10745     0.03311    -0.13585     0.00246
 PY  C  29   0.14531    -0.07015    -0.08933    -0.02497    -0.18255     0.03458
 PZ  C  29   0.01884     0.03285    -0.04033     0.26263     0.04921     0.30622
  
  S  C  30   0.04813    -0.02399    -0.05168     0.01362     0.01660     0.01729
 PX  C  30   0.03017     0.15602    -0.03201    -0.03105    -0.24829     0.04168
 PY  C  30  -0.08623     0.02972     0.14392     0.04819    -0.01841     0.00251
 PZ  C  30   0.01375     0.00866    -0.04241     0.26071     0.02486     0.30303




    ROOT NO.   31          32          33          34          35          36

           -13.19139   -12.91427   -12.21617   -11.80844   -11.63077   -11.57522
  
  
  S  C   1   0.00585     0.00401    -0.00171    -0.00672     0.00621     0.01092
 PX  C   1  -0.21457    -0.10943    -0.10831     0.01640     0.03272     0.14209
 PY  C   1   0.15236    -0.22627     0.19069     0.03931    -0.04944     0.09215
 PZ  C   1   0.06082    -0.00713     0.02936    -0.29243     0.15674    -0.03016
  
  S  C   2   0.01623    -0.01570    -0.02935     0.00311     0.01556    -0.04723
 PX  C   2   0.20698     0.12005     0.06830    -0.01485    -0.02180    -0.17920
 PY  C   2  -0.09020     0.16578    -0.20662     0.02753     0.03142    -0.14736
 PZ  C   2   0.01461     0.02303    -0.03788    -0.22479     0.13860    -0.02807
  
  S  C   3   0.01918     0.02778     0.00700     0.00388     0.00145     0.00899
 PX  C   3  -0.07480    -0.13302    -0.15322     0.06764     0.07497     0.18722
 PY  C   3   0.02593    -0.13951     0.29649    -0.04114    -0.09354     0.16000
 PZ  C   3  -0.00000    -0.00446    -0.03393    -0.06896     0.04783     0.02688
  
  S  C   4  -0.02517    -0.02406     0.00307    -0.00889     0.00587    -0.01878
 PX  C   4   0.17728     0.09455     0.20973    -0.01466    -0.09705    -0.19854
 PY  C   4  -0.00021     0.08213    -0.26699     0.05741     0.08497    -0.18567
 PZ  C   4   0.03364    -0.00228    -0.00056    -0.07003     0.01130     0.03636
  
  S  C   5   0.02356     0.00871    -0.04167     0.00707     0.02494     0.02468
 PX  C   5  -0.17877    -0.12766    -0.18242    -0.00076     0.09154     0.19311
 PY  C   5   0.07346    -0.19353     0.14842     0.00776    -0.02500     0.11225
 PZ  C   5   0.08507    -0.00189     0.06505    -0.22241     0.08559    -0.01625
  
  S  C   6   0.01717    -0.02145     0.02045    -0.00798    -0.00193    -0.01119
 PX  C   6   0.21032     0.09151     0.11235     0.05719    -0.07228    -0.12450
 PY  C   6  -0.13489     0.23223    -0.17773     0.00392     0.01768    -0.12430
 PZ  C   6   0.10860     0.03431     0.06676    -0.28731     0.12680    -0.07129
  
  S  C   7  -0.04494    -0.06623    -0.02812     0.01856     0.03562    -0.00420
 PX  C   7   0.06992     0.07584     0.13660    -0.05768    -0.05020    -0.20034
 PY  C   7   0.11728    -0.07583    -0.13804     0.05455     0.11774    -0.15795
 PZ  C   7  -0.00842     0.01535    -0.01397     0.12390    -0.05172    -0.03351
  
  S  C   8   0.04884     0.05187    -0.03122     0.02709     0.03714     0.00581
 PX  C   8   0.06579    -0.10986    -0.09455     0.04906     0.11986     0.22058
 PY  C   8  -0.09991    -0.04903     0.16425    -0.06063    -0.06657     0.17532
 PZ  C   8   0.00682    -0.00658    -0.01115     0.12707    -0.09523     0.05494
  
  S  C   9  -0.07167    -0.01282     0.01022     0.00450    -0.02280     0.00535
 PX  C   9  -0.10938     0.06898     0.12779    -0.10489    -0.11143    -0.21699
 PY  C   9   0.18109    -0.15719    -0.07023     0.12378     0.19414    -0.17301
 PZ  C   9  -0.03575     0.03089     0.02244     0.27420    -0.21777    -0.02395
  
  S  C  10   0.01988     0.05370    -0.00485     0.00218     0.01233    -0.01425
 PX  C  10   0.14573    -0.05273    -0.05434     0.10296     0.14764     0.18679
 PY  C  10  -0.21832     0.11090     0.11398    -0.12775    -0.18272     0.17202
 PZ  C  10  -0.04249     0.02670     0.02163     0.29584    -0.15221    -0.01822
  
  S  C  11  -0.03795    -0.06821    -0.00323     0.03843     0.04740     0.01156
 PX  C  11  -0.16595     0.00435     0.05843    -0.09281    -0.11351    -0.17886
 PY  C  11   0.01506    -0.16710     0.06522     0.06845     0.19035    -0.12020
 PZ  C  11  -0.03281    -0.00060     0.03841     0.17465    -0.00839    -0.04601
  
  S  H  12  -0.10751     0.10465    -0.02957    -0.12547    -0.21748     0.02239
  
  S  C  13   0.04366     0.05813     0.00124     0.02810     0.03678    -0.03631
 PX  C  13   0.08702     0.09821     0.03125     0.07611     0.11545     0.20841
 PY  C  13  -0.10728     0.08608    -0.02643    -0.08123    -0.14320     0.16337
 PZ  C  13  -0.00966     0.03099     0.00887     0.13581    -0.11986    -0.00632
  
  S  H  14  -0.08657     0.06509     0.18522    -0.07908    -0.12613     0.05104
  
  S  H  15  -0.01376     0.25186    -0.10515    -0.00753     0.00422    -0.15572
  
  S  H  16   0.16590    -0.10344     0.21553    -0.01305    -0.05084     0.04085
  
  S  H  17   0.15518    -0.10215     0.20955     0.00197    -0.05936     0.02344
  
  S  H  18  -0.21615    -0.09191    -0.11874    -0.01756     0.05217     0.12690
  
  S  H  19  -0.08913     0.03673     0.18570    -0.07663    -0.11455     0.04825
  
  S  H  20  -0.10490     0.04814    -0.03672    -0.11409    -0.17590     0.02468
  
  S  C  21   0.00998    -0.02981     0.00698     0.01890     0.03760     0.01922
 PX  C  21  -0.08121    -0.21978    -0.07374    -0.12934    -0.09981    -0.14152
 PY  C  21  -0.20867    -0.04912     0.12312     0.05897     0.08854    -0.08087
 PZ  C  21  -0.01563     0.06360     0.04832    -0.15249     0.19493     0.04963
  
  S  C  22   0.01690    -0.00956    -0.00581     0.00655    -0.01055    -0.01185
 PX  C  22   0.01696     0.29355     0.07931     0.01849     0.11285     0.11998
 PY  C  22   0.26268    -0.00978    -0.15642    -0.03657    -0.12758     0.07467
 PZ  C  22   0.00202    -0.02121    -0.00762    -0.26710     0.16404     0.03320
  
  S  C  23  -0.00066    -0.01676    -0.00700    -0.03076     0.01373     0.01656
 PX  C  23  -0.03374    -0.26897    -0.07292    -0.07438    -0.08533    -0.12952
 PY  C  23  -0.26021     0.04818     0.15849     0.05797     0.12074    -0.05195
 PZ  C  23  -0.00144     0.04038    -0.00158    -0.26906     0.13980     0.05652
  
  S  C  24   0.01970     0.00598     0.02383     0.03236     0.03518    -0.03708
 PX  C  24   0.04456     0.25875     0.04042     0.03176     0.06021     0.15790
 PY  C  24   0.19494     0.01450    -0.16916    -0.05401    -0.17402     0.11440
 PZ  C  24   0.00642     0.01507    -0.02442    -0.21541     0.04856     0.02906
  
  S  H  25   0.13071    -0.08845    -0.14554    -0.08916    -0.14970    -0.00142
  
  S  H  26   0.02082     0.28643     0.07955     0.05747     0.08826     0.11362
  
  S  H  27  -0.23461    -0.11401     0.09414     0.02004     0.05070    -0.11757
  
  S  H  28   0.14885    -0.10526    -0.16041    -0.07628    -0.17361     0.00794
  
  S  C  29   0.02093     0.03370    -0.00201     0.00370     0.00926    -0.00966
 PX  C  29   0.05678     0.20955     0.09504     0.11791     0.15223     0.15431
 PY  C  29   0.06086     0.09131    -0.16128    -0.12313    -0.25670     0.12813
 PZ  C  29  -0.03795     0.02309     0.02738    -0.02652     0.05131    -0.01898
  
  S  C  30  -0.02703    -0.00774    -0.00818    -0.01256    -0.00759     0.02728
 PX  C  30  -0.12958    -0.11517    -0.03482    -0.10387    -0.14226    -0.18199
 PY  C  30  -0.13337    -0.07152     0.19175     0.12330     0.25842    -0.11940
 PZ  C  30  -0.01687     0.02968    -0.00528    -0.05420    -0.03988    -0.00150




    ROOT NO.   37          38          39          40          41          42

           -10.55385    -9.86537    -9.62990    -8.29643    -8.10061    -6.74503
  
  
  S  C   1  -0.00559    -0.01952    -0.01477    -0.01511     0.02040     0.01481
 PX  C   1   0.01888    -0.01670     0.02612     0.02616    -0.00201    -0.01387
 PY  C   1  -0.01241     0.03789     0.00117     0.00366    -0.02546    -0.00905
 PZ  C   1  -0.06800    -0.33093    -0.21082    -0.18931     0.28971     0.17390
  
  S  C   2   0.00556     0.00212     0.00583     0.00416    -0.00167    -0.00237
 PX  C   2  -0.01390     0.02086    -0.02029    -0.02316    -0.00271     0.01226
 PY  C   2   0.03473     0.00751     0.04547     0.03699    -0.00464    -0.01863
 PZ  C   2  -0.17436    -0.10220    -0.33469    -0.35452     0.06634     0.21950
  
  S  C   3   0.00007     0.00460     0.00002    -0.00452    -0.00574     0.00401
 PX  C   3   0.02085    -0.04467     0.01925     0.01899     0.02973     0.00156
 PY  C   3  -0.01611    -0.00103    -0.01051    -0.00817     0.00290     0.00759
 PZ  C   3  -0.21036     0.28496    -0.19629    -0.09855    -0.32694    -0.12532
  
  S  C   4  -0.01248    -0.01571    -0.01473     0.00075     0.02195    -0.00694
 PX  C   4  -0.00825     0.05239     0.00070    -0.01716    -0.01638     0.01183
 PY  C   4   0.01825     0.00937     0.01809     0.00786    -0.00082    -0.00150
 PZ  C   4   0.20533     0.24208     0.27500    -0.01014    -0.33699     0.16063
  
  S  C   5   0.00621    -0.01109     0.00830     0.01460    -0.00334    -0.00914
 PX  C   5   0.01450    -0.05130     0.01141     0.02435     0.00912    -0.01202
 PY  C   5  -0.02488     0.00143    -0.02826    -0.01651     0.00634     0.00552
 PZ  C   5   0.20283    -0.14748     0.32093     0.36683    -0.06818    -0.21908
  
  S  C   6   0.00548    -0.00413     0.00813     0.00741     0.00295    -0.00406
 PX  C   6  -0.02518     0.08007    -0.02656    -0.05132    -0.03255     0.03237
 PY  C   6   0.01342     0.01244     0.00805    -0.01219    -0.00393     0.01480
 PZ  C   6   0.11296    -0.34417     0.14360     0.27975     0.19486    -0.19527
  
  S  C   7   0.00645     0.00255     0.00163     0.00873     0.00439    -0.01035
 PX  C   7   0.01377     0.01301     0.00390    -0.02201    -0.00267     0.02441
 PY  C   7   0.03516    -0.00562     0.01280    -0.01299     0.00839     0.02056
 PZ  C   7  -0.33540     0.23540    -0.20035     0.20245    -0.03745    -0.37006
  
  S  C   8   0.00034     0.00285    -0.00574     0.00663    -0.00960    -0.01089
 PX  C   8  -0.03477    -0.04996    -0.04757     0.02790     0.00736    -0.04791
 PY  C   8  -0.01101    -0.02387    -0.00936     0.00078     0.00835    -0.00287
 PZ  C   8   0.32359     0.17813     0.25212    -0.21043     0.05280     0.35909
  
  S  C   9   0.00417    -0.01061     0.00324    -0.00642     0.02641     0.00265
 PX  C   9  -0.02836     0.02566     0.01839     0.00877    -0.04430     0.01063
 PY  C   9   0.02074     0.01970    -0.00034     0.00037    -0.00021     0.00032
 PZ  C   9   0.25811    -0.00374     0.02632    -0.16904     0.39437    -0.01404
  
  S  C  10   0.00720    -0.00157    -0.00481    -0.00255    -0.00252    -0.00156
 PX  C  10   0.03151    -0.00605    -0.01193    -0.01198    -0.01102    -0.01124
 PY  C  10  -0.01802    -0.01402     0.00694    -0.00511    -0.02447     0.00010
 PZ  C  10  -0.27141    -0.00788    -0.02360     0.28404     0.32838    -0.00969
  
  S  C  11  -0.00764    -0.01011     0.00095     0.01611     0.00288     0.01826
 PX  C  11  -0.01539     0.00956     0.00807     0.00399     0.00491     0.00688
 PY  C  11   0.08749     0.04973    -0.03936    -0.02584     0.00887    -0.04715
 PZ  C  11  -0.32041    -0.24116     0.14794     0.22161    -0.02984     0.38293
  
  S  H  12  -0.04352    -0.00549     0.02007    -0.00301     0.00161    -0.00776
  
  S  C  13   0.00842     0.00481    -0.00380     0.00461    -0.01097     0.00675
 PX  C  13  -0.01096    -0.01449    -0.00737     0.01960     0.00353     0.02320
 PY  C  13   0.00539    -0.02348    -0.01165    -0.01150     0.01207    -0.02085
 PZ  C  13   0.33866    -0.19022    -0.21313    -0.21395     0.00570    -0.37836
  
  S  H  14  -0.01560     0.00578    -0.00239    -0.00375    -0.00904     0.00449
  
  S  H  15   0.00693     0.01635     0.00739     0.00227    -0.01208    -0.00437
  
  S  H  16  -0.02184     0.01569    -0.02028    -0.01337    -0.00667     0.00248
  
  S  H  17  -0.02285     0.02160    -0.02075    -0.01475    -0.00548     0.00352
  
  S  H  18   0.01193    -0.03165     0.00992     0.01396     0.00476    -0.00552
  
  S  H  19  -0.00422     0.00158     0.00503    -0.00813    -0.00478     0.01027
  
  S  H  20  -0.01058     0.00289     0.00857    -0.00688     0.00512    -0.00540
  
  S  C  21  -0.00110    -0.00088     0.00548    -0.00766     0.00018    -0.00870
 PX  C  21  -0.04897     0.01184     0.07112    -0.05929     0.00311    -0.03408
 PY  C  21   0.03910     0.00329    -0.03610     0.02124    -0.00423     0.01158
 PZ  C  21  -0.20262     0.06126     0.34075    -0.31858     0.03891    -0.22829
  
  S  C  22   0.00424    -0.00919    -0.00617     0.00072    -0.00871     0.00013
 PX  C  22  -0.00769     0.04957     0.02436    -0.01689     0.04630    -0.02375
 PY  C  22  -0.02595    -0.02793     0.00951    -0.00096    -0.01361     0.00448
 PZ  C  22  -0.09691     0.30110     0.21277    -0.16981     0.28306    -0.19783
  
  S  C  23   0.01185     0.02992    -0.01799     0.02555     0.01842     0.01960
 PX  C  23  -0.00245     0.02768    -0.00093     0.01522     0.01609     0.01407
 PY  C  23   0.02202     0.00778    -0.01005     0.00153    -0.00147    -0.00097
 PZ  C  23   0.10881     0.35422    -0.15457     0.25472     0.22771     0.19098
  
  S  C  24  -0.00924    -0.00170     0.02532    -0.02770     0.00285    -0.02142
 PX  C  24   0.01223    -0.00868    -0.02120     0.01191    -0.00714     0.00458
 PY  C  24  -0.04774    -0.02916     0.03013    -0.01495     0.00629    -0.00819
 PZ  C  24   0.21636     0.15425    -0.33302     0.32479    -0.05536     0.23177
  
  S  H  25  -0.03131    -0.00612     0.01994    -0.00201     0.00110     0.00666
  
  S  H  26   0.00667     0.00787    -0.00550     0.00578     0.00892     0.00165
  
  S  H  27   0.01348     0.00045    -0.00208    -0.00605    -0.00954    -0.00597
  
  S  H  28  -0.02767    -0.00733     0.00868     0.00903     0.00273     0.01212
  
  S  C  29  -0.00920    -0.01851     0.01309    -0.01205    -0.02069     0.00650
 PX  C  29   0.00426    -0.03041    -0.01150     0.01367    -0.02860     0.01994
 PY  C  29  -0.06018    -0.01697     0.03249    -0.00114     0.01126     0.00312
 PZ  C  29  -0.22138    -0.29189     0.19955    -0.08295    -0.32616     0.15249
  
  S  C  30  -0.00417    -0.00575    -0.00471     0.00409     0.00153    -0.00238
 PX  C  30  -0.01508     0.02875     0.02465    -0.00802     0.01436    -0.00153
 PY  C  30   0.05870     0.01204    -0.03549     0.00881    -0.02235     0.00403
 PZ  C  30   0.22919    -0.23139    -0.26738    -0.01580    -0.35121    -0.13772




    ROOT NO.   43          44          45          46          47          48

            -1.03080     0.18712     0.29815     1.24271     1.34348     1.78808
  
  
  S  C   1  -0.01640     0.02684    -0.02502    -0.00267     0.06048    -0.00862
 PX  C   1   0.00324    -0.01222     0.00749     0.00084    -0.01929    -0.00408
 PY  C   1   0.01838    -0.01326     0.02611     0.01277    -0.02361     0.00540
 PZ  C   1  -0.18815     0.21466    -0.26959    -0.09381     0.37325    -0.03533
  
  S  C   2   0.00381    -0.00625     0.00755     0.00243    -0.02999     0.01844
 PX  C   2   0.00141     0.01009    -0.00139     0.00321     0.01314     0.00735
 PY  C   2  -0.01799    -0.00082    -0.03110    -0.02654     0.01390    -0.00526
 PZ  C   2   0.21637     0.02631     0.36128     0.30616    -0.20677     0.15052
  
  S  C   3   0.00218     0.00166    -0.00561    -0.01213     0.02443    -0.03625
 PX  C   3  -0.01118     0.01355     0.00215     0.02407     0.00374     0.00888
 PY  C   3  -0.00036     0.01173     0.00127     0.00711     0.00927     0.00343
 PZ  C   3   0.14808    -0.32515     0.00081    -0.31811    -0.19381    -0.21351
  
  S  C   4  -0.02006    -0.02744    -0.00129     0.00996    -0.05242     0.02487
 PX  C   4   0.00326     0.00571     0.00856     0.01290     0.00352     0.01126
 PY  C   4  -0.00237    -0.00506    -0.00045    -0.00324    -0.00414    -0.00612
 PZ  C   4   0.15128     0.33264    -0.09454    -0.17831     0.33648    -0.17465
  
  S  C   5   0.01946     0.01832     0.02074     0.01911     0.03865     0.00124
 PX  C   5   0.00780     0.00599     0.00111    -0.00630     0.01076    -0.00866
 PY  C   5  -0.01212    -0.00685    -0.01851    -0.02069    -0.01061    -0.01106
 PZ  C   5   0.21627     0.03232     0.35937     0.36360     0.03599     0.19648
  
  S  C   6  -0.00907    -0.02209    -0.00805    -0.01697    -0.04887    -0.00487
 PX  C   6   0.02135     0.02667     0.02420     0.03066     0.02358     0.01699
 PY  C   6  -0.00281     0.01518    -0.00645     0.00385     0.02112     0.00268
 PZ  C   6  -0.18887    -0.25691    -0.20396    -0.26505    -0.28756    -0.12789
  
  S  C   7  -0.00903    -0.00403    -0.00043     0.00115    -0.01523     0.03349
 PX  C   7   0.01967     0.00351     0.00932    -0.02229    -0.00427    -0.01586
 PY  C   7   0.01940     0.00142     0.01360    -0.02026    -0.01111    -0.00930
 PZ  C   7  -0.36321    -0.04070    -0.21487     0.26649     0.11217     0.32340
  
  S  C   8   0.01325     0.02155     0.00307    -0.00269     0.03909    -0.02056
 PX  C   8   0.03030     0.00585     0.01581    -0.01458     0.02031    -0.02104
 PY  C   8  -0.00278    -0.00738     0.00135     0.00287    -0.01155     0.00369
 PZ  C   8  -0.36808    -0.01835    -0.21191     0.19497    -0.27591     0.28285
  
  S  C   9  -0.00254    -0.04012     0.01525    -0.00731    -0.02442    -0.00060
 PX  C   9   0.00836     0.02901    -0.02117    -0.00023     0.00550     0.01936
 PY  C   9  -0.00357     0.00414     0.00308     0.00638     0.00311    -0.01287
 PZ  C   9  -0.00563    -0.33338     0.28872    -0.05892     0.02574    -0.25743
  
  S  C  10  -0.00502     0.01129    -0.00062     0.02208     0.02241    -0.03799
 PX  C  10  -0.01307    -0.02763     0.00120     0.01634     0.00632    -0.01606
 PY  C  10   0.00130    -0.00802    -0.01922     0.00251    -0.00043     0.02556
 PZ  C  10   0.00110     0.39971     0.18774    -0.00629     0.04973    -0.27432
  
  S  C  11   0.02735     0.00840    -0.01260    -0.04794    -0.04176     0.07955
 PX  C  11   0.00741     0.01308    -0.00238    -0.01126    -0.00759     0.01253
 PY  C  11  -0.03976     0.01525     0.02869     0.00575     0.01083    -0.02031
 PZ  C  11   0.36857    -0.01068    -0.21221    -0.20382    -0.19857     0.31933
  
  S  H  12  -0.01481     0.00200     0.00949     0.02481     0.02614    -0.04365
  
  S  C  13   0.00362     0.00853    -0.00874     0.00625     0.02041    -0.00338
 PX  C  13  -0.02096    -0.01419     0.01394     0.01142    -0.00760    -0.02710
 PY  C  13   0.01325    -0.01382    -0.00295    -0.00652     0.00191     0.01236
 PZ  C  13   0.37932    -0.04092    -0.21750    -0.11349     0.21358     0.35063
  
  S  H  14   0.00781     0.00495    -0.00164    -0.00643     0.00722    -0.01477
  
  S  H  15   0.01132    -0.01529     0.01697     0.00303    -0.03745     0.00704
  
  S  H  16   0.00203     0.00107    -0.00152    -0.00320     0.01564    -0.00985
  
  S  H  17  -0.00308    -0.00764    -0.00588    -0.00991    -0.01723    -0.00151
  
  S  H  18   0.00737     0.01398     0.00790     0.01377     0.03186     0.00526
  
  S  H  19  -0.00140    -0.00657    -0.00464     0.00004    -0.01672     0.01757
  
  S  H  20  -0.00327     0.00130     0.00496    -0.00601    -0.01297     0.00443
  
  S  C  21  -0.00332     0.01982     0.01063    -0.03351    -0.01587     0.04362
 PX  C  21  -0.03970    -0.00985     0.04781    -0.02413     0.04457     0.01255
 PY  C  21   0.01271    -0.00379    -0.02014     0.02089    -0.00849    -0.01724
 PZ  C  21  -0.21945     0.05651     0.30935    -0.28668     0.16384     0.24075
  
  S  C  22  -0.01044     0.00315     0.00890     0.00110    -0.00087    -0.01482
 PX  C  22   0.03241     0.02731    -0.03401     0.01287    -0.04506    -0.01361
 PY  C  22  -0.01177     0.00301     0.01692    -0.02177     0.00069     0.02062
 PZ  C  22   0.20191     0.22425    -0.22947     0.09519    -0.35355    -0.13174
  
  S  C  23   0.01582    -0.03529    -0.01618     0.02484     0.03517    -0.00396
 PX  C  23   0.02004    -0.02580    -0.02256     0.02954     0.02880    -0.01491
 PY  C  23  -0.00166     0.00103     0.00182    -0.00014     0.00074    -0.00222
 PZ  C  23   0.19635    -0.29060    -0.19112     0.24139     0.27894    -0.09265
  
  S  C  24   0.01230     0.00663    -0.02298     0.03161    -0.00006    -0.03579
 PX  C  24  -0.01714     0.01893     0.02276    -0.03188    -0.02505     0.01981
 PY  C  24   0.01472    -0.00024    -0.01796     0.01449    -0.00852    -0.00787
 PZ  C  24  -0.24096     0.05494     0.33091    -0.34722    -0.04115     0.23011
  
  S  H  25   0.00563    -0.01218    -0.00778     0.01385     0.00570    -0.01629
  
  S  H  26   0.00945     0.00017    -0.00698    -0.00344    -0.00305     0.01272
  
  S  H  27  -0.01166     0.02060     0.01348    -0.02021    -0.02189     0.00675
  
  S  H  28  -0.00408    -0.00464     0.01523    -0.02685     0.00278     0.03154
  
  S  C  29  -0.01328    -0.04625    -0.00496     0.06205     0.04977    -0.07912
 PX  C  29  -0.00382    -0.01892    -0.00777     0.01704     0.00000    -0.01074
 PY  C  29   0.01622    -0.00145    -0.01000    -0.00664    -0.00218     0.01636
 PZ  C  29  -0.15528    -0.35434     0.00234     0.26195     0.22600    -0.21448
  
  S  C  30  -0.00254     0.01906     0.00967    -0.03027    -0.03268     0.03491
 PX  C  30   0.00918     0.00371     0.00092    -0.01895     0.00643     0.02752
 PY  C  30  -0.01547    -0.00496     0.00407     0.01661     0.00678    -0.02453
 PZ  C  30  -0.14113     0.33445    -0.07784     0.18196    -0.29661    -0.27643




    ROOT NO.   49          50          51          52          53          54

             2.35283     2.42150     2.82177     3.16440     3.30033     3.33919
  
  
  S  C   1   0.08125     0.11081     0.19929     0.00704     0.01390     0.25780
 PX  C   1  -0.02490     0.02653     0.01887    -0.03285     0.03836     0.01849
 PY  C   1  -0.01467     0.01315     0.01831    -0.01219    -0.05325    -0.00282
 PZ  C   1   0.32396    -0.03039     0.00732     0.23003     0.07236    -0.05809
  
  S  C   2  -0.04133    -0.16711    -0.24425     0.06313    -0.05468    -0.25213
 PX  C   2   0.02420    -0.02800    -0.00790     0.03508    -0.01653     0.03605
 PY  C   2   0.02337    -0.05072    -0.04474     0.05113    -0.00452    -0.01771
 PZ  C   2  -0.25005     0.00536    -0.04890    -0.24962    -0.07681     0.01501
  
  S  C   3   0.00644     0.24674     0.28608    -0.14102     0.02744     0.15550
 PX  C   3  -0.02582     0.00916    -0.05908    -0.00021     0.11646    -0.04562
 PY  C   3  -0.01137     0.02249     0.00113    -0.03068    -0.10308    -0.09755
 PZ  C   3   0.07234     0.02309     0.09535     0.32504     0.08826     0.02372
  
  S  C   4  -0.01660    -0.23247    -0.25380     0.13103     0.26019     0.04675
 PX  C   4   0.02197    -0.02689     0.01491     0.00338    -0.06781     0.03142
 PY  C   4   0.01198     0.01300     0.06795    -0.03578     0.05842     0.12881
 PZ  C   4  -0.06344    -0.08237    -0.13156    -0.29900    -0.06266    -0.02745
  
  S  C   5   0.04634     0.15488     0.20976    -0.06281    -0.25208     0.02231
 PX  C   5  -0.00923     0.06109     0.04683    -0.04639    -0.06837    -0.04978
 PY  C   5  -0.02786    -0.00376    -0.01982    -0.02596    -0.00592    -0.03676
 PZ  C   5   0.23941     0.01092     0.04716     0.23932     0.09427    -0.00308
  
  S  C   6  -0.07950    -0.10114    -0.17726    -0.01823     0.13759    -0.13159
 PX  C   6   0.02789    -0.03346    -0.03839     0.03796     0.03364    -0.02230
 PY  C   6   0.02755    -0.01302     0.00487     0.02885     0.07474     0.07749
 PZ  C   6  -0.32243     0.01487    -0.02139    -0.22155    -0.08644     0.03105
  
  S  C   7   0.03699    -0.25133    -0.14528     0.06492    -0.24175    -0.00491
 PX  C   7   0.01280     0.00144     0.09005    -0.04039    -0.08568     0.08985
 PY  C   7   0.01226    -0.05923     0.02103    -0.00521    -0.07790     0.05269
 PZ  C   7   0.13961     0.00875    -0.04333    -0.18223    -0.05908    -0.04495
  
  S  C   8  -0.02819     0.23736     0.11604    -0.02102    -0.15691    -0.28177
 PX  C   8  -0.02074     0.03021    -0.07101     0.04085     0.05655    -0.10320
 PY  C   8  -0.00965    -0.03175    -0.06085     0.03724     0.05650    -0.03420
 PZ  C   8  -0.15778     0.06484     0.06625     0.16529     0.05279     0.04512
  
  S  C   9   0.09005    -0.29060     0.00846    -0.07738    -0.01186     0.38765
 PX  C   9  -0.00959    -0.01496     0.07046    -0.03619    -0.07750    -0.02046
 PY  C   9  -0.01369     0.01906     0.04665    -0.02895     0.15962     0.00448
 PZ  C   9   0.34703    -0.01027     0.00559    -0.04452    -0.06621    -0.14156
  
  S  C  10  -0.08320     0.29991     0.01191     0.02694     0.35842    -0.17500
 PX  C  10   0.01445    -0.01444    -0.06711     0.00646     0.05829     0.08779
 PY  C  10  -0.00812     0.03346    -0.04501     0.04354    -0.06324    -0.14301
 PZ  C  10  -0.33643    -0.02676    -0.00172     0.05078     0.04074     0.08945
  
  S  C  11   0.06828    -0.23838     0.10449    -0.03758    -0.29425    -0.04137
 PX  C  11  -0.01511     0.04858     0.05916    -0.00374     0.09157    -0.09388
 PY  C  11  -0.01542    -0.03960     0.05639    -0.02650     0.01397    -0.05912
 PZ  C  11   0.14311     0.04466     0.04545     0.10669     0.00493    -0.03551
  
  S  H  12  -0.04686     0.12480    -0.06274     0.03060     0.14184    -0.00289
  
  S  C  13  -0.04899     0.24625    -0.13886     0.12243    -0.16127    -0.20357
 PX  C  13   0.02183     0.00892    -0.07905     0.03575    -0.07544     0.10789
 PY  C  13   0.01505    -0.05045    -0.02105    -0.00782    -0.01988     0.09296
 PZ  C  13  -0.18087     0.05628    -0.08525    -0.09345     0.05242     0.07596
  
  S  H  14  -0.02211     0.14001     0.08577    -0.03738     0.11423    -0.02799
  
  S  H  15  -0.04978    -0.07462    -0.13127     0.00047    -0.02082    -0.17813
  
  S  H  16   0.02970     0.09154     0.14839    -0.03160     0.00781     0.14949
  
  S  H  17  -0.02487    -0.08669    -0.13049     0.04568     0.14229    -0.03897
  
  S  H  18   0.05411     0.06202     0.10724     0.02079    -0.08876     0.07188
  
  S  H  19   0.01744    -0.13686    -0.07822     0.01601     0.05666     0.17325
  
  S  H  20   0.02894    -0.13639     0.08544    -0.06719     0.05838     0.11384
  
  S  C  21   0.00065    -0.14722     0.18500    -0.03523    -0.05854    -0.22381
 PX  C  21  -0.04641     0.05331    -0.03386     0.04212     0.04031     0.03572
 PY  C  21   0.01162    -0.00305     0.00967    -0.02697     0.02370    -0.03632
 PZ  C  21  -0.22886    -0.05780     0.12837     0.22995    -0.03786     0.02038
  
  S  C  22   0.00572     0.09816    -0.14017     0.05355    -0.01960     0.21118
 PX  C  22   0.03673    -0.01651     0.01570    -0.03726     0.02152    -0.02377
 PY  C  22   0.00158    -0.00858    -0.00092     0.02057    -0.07728    -0.00890
 PZ  C  22   0.30875     0.09896    -0.14595    -0.21745     0.04252    -0.01220
  
  S  C  23  -0.03772    -0.12181     0.17573    -0.07866     0.19295    -0.14407
 PX  C  23  -0.03644     0.01269    -0.00465     0.05358    -0.06394    -0.02509
 PY  C  23  -0.00140     0.01016    -0.01336     0.00184     0.02790     0.03949
 PZ  C  23  -0.27711    -0.10978     0.12986     0.21170    -0.07390     0.02634
  
  S  C  24  -0.01775     0.14694    -0.18441     0.15770    -0.26005     0.09484
 PX  C  24   0.03504    -0.01071    -0.00737    -0.03220     0.00976     0.03662
 PY  C  24  -0.00040    -0.06345     0.06463    -0.01798     0.04648    -0.00254
 PZ  C  24   0.17967     0.13420    -0.17149    -0.18643     0.03373     0.02193
  
  S  H  25   0.00794     0.07670    -0.10911     0.01690     0.00108     0.11917
  
  S  H  26   0.00166    -0.05868     0.08020    -0.03464    -0.00472    -0.13412
  
  S  H  27   0.02956     0.08571    -0.12321     0.04614    -0.13952     0.08901
  
  S  H  28   0.01256    -0.06993     0.09615    -0.09537     0.13198    -0.07595
  
  S  C  29  -0.03157     0.22735    -0.23787     0.06748     0.08658     0.20820
 PX  C  29   0.02274    -0.04093    -0.00405    -0.03811     0.00754     0.05200
 PY  C  29   0.00495     0.01210    -0.06110     0.05265    -0.16564     0.01262
 PZ  C  29   0.04264     0.00151    -0.10940    -0.25657     0.02031    -0.01813
  
  S  C  30   0.03179    -0.23462     0.25219    -0.15627     0.23618    -0.05732
 PX  C  30  -0.01066     0.01477     0.03988    -0.00630    -0.01900    -0.12635
 PY  C  30  -0.00212     0.02894    -0.02153    -0.02378     0.10034     0.03521
 PZ  C  30  -0.00467    -0.09071     0.15922     0.23527    -0.06761    -0.03977




    ROOT NO.   55          56          57          58          59          60

             3.56265     3.73091     3.80982     3.90047     4.14813     4.34410
  
  
  S  C   1   0.11835     0.37155    -0.15207    -0.07907     0.05119    -0.02866
 PX  C   1  -0.05827    -0.07469     0.04760    -0.11533     0.10132    -0.02791
 PY  C   1   0.03490     0.03619    -0.02200     0.09057    -0.03268     0.02547
 PZ  C   1   0.05623    -0.14166     0.04489     0.00490    -0.01349     0.00453
  
  S  C   2   0.02317    -0.08221    -0.01145     0.28779    -0.25926     0.07508
 PX  C   2   0.07756     0.17681    -0.09062     0.04609    -0.02242     0.00330
 PY  C   2   0.04508     0.05444    -0.03473    -0.00156     0.05179    -0.01480
 PZ  C   2  -0.10323     0.10580    -0.02591    -0.00268     0.02314    -0.00370
  
  S  C   3  -0.14420    -0.22090     0.15879    -0.19037    -0.00997    -0.03840
 PX  C   3  -0.06054     0.00368    -0.01956    -0.00682    -0.18200     0.00712
 PY  C   3  -0.00353    -0.10746     0.03705     0.15581    -0.06720     0.04131
 PZ  C   3   0.22021    -0.12621     0.01762     0.00648    -0.02757     0.00330
  
  S  C   4   0.02571     0.26045    -0.13416    -0.13755    -0.03357    -0.02313
 PX  C   4   0.05530     0.04925    -0.00993     0.15628    -0.15042     0.03670
 PY  C   4  -0.05647    -0.04809     0.07268    -0.09646    -0.10236    -0.02622
 PZ  C   4  -0.20515     0.15083    -0.03465    -0.00405     0.00595    -0.00048
  
  S  C   5   0.09613    -0.00193     0.01304     0.32975    -0.24729     0.07369
 PX  C   5  -0.04560    -0.14736     0.07676    -0.00947     0.03886    -0.01673
 PY  C   5  -0.03852    -0.08048     0.03963     0.00945    -0.02807     0.00596
 PZ  C   5   0.08700    -0.10011     0.02706    -0.03860     0.00876    -0.00741
  
  S  C   6  -0.18181    -0.29900     0.14346    -0.20323     0.08986    -0.04570
 PX  C   6  -0.00052    -0.02199     0.00242    -0.01749     0.03028     0.00020
 PY  C   6   0.01445     0.11735    -0.05062    -0.12107     0.08985    -0.03256
 PZ  C   6  -0.05058     0.11826    -0.03942     0.02334     0.01023     0.00327
  
  S  C   7   0.16077     0.08968    -0.01464     0.12978     0.35638     0.02009
 PX  C   7  -0.00464    -0.08461     0.08282    -0.07020     0.06546    -0.03291
 PY  C   7   0.01518    -0.04248     0.05286    -0.03928    -0.04969    -0.03561
 PZ  C   7  -0.22304     0.08959     0.00007     0.00660     0.00399    -0.00108
  
  S  C   8   0.04196    -0.10702    -0.08050     0.07892     0.35462     0.02576
 PX  C   8   0.00539     0.10311    -0.08438    -0.06480    -0.03061    -0.03793
 PY  C   8   0.01469     0.06857    -0.06091    -0.03045     0.07485    -0.00215
 PZ  C   8   0.20519    -0.10111     0.00609    -0.00357     0.00215     0.00332
  
  S  C   9  -0.06502    -0.09861     0.19074     0.03766    -0.05951     0.10307
 PX  C   9   0.03775    -0.08847    -0.01804     0.06715     0.17792     0.04591
 PY  C   9  -0.04382    -0.02299    -0.07469     0.06139    -0.01178     0.13621
 PZ  C   9  -0.27551     0.12425    -0.02783     0.02183     0.02843    -0.01520
  
  S  C  10  -0.08386     0.08188    -0.16329     0.02019    -0.10566     0.10471
 PX  C  10  -0.02440     0.01873     0.05477     0.11613     0.08468     0.13396
 PY  C  10   0.05617     0.05993    -0.06965     0.02773     0.13431    -0.04912
 PZ  C  10   0.30378    -0.11880     0.00202    -0.03243    -0.01251    -0.00400
  
  S  C  11   0.07008    -0.06742    -0.05143    -0.19827    -0.11640    -0.29032
 PX  C  11  -0.02218     0.01899    -0.10626    -0.06473    -0.06558     0.00671
 PY  C  11   0.03525    -0.01953    -0.08992    -0.04700    -0.01291     0.08357
 PZ  C  11  -0.25021     0.09097     0.02213     0.07250     0.04038     0.04414
  
  S  H  12  -0.01709     0.04696     0.02457     0.11670     0.11704     0.26833
  
  S  C  13   0.06541     0.15958     0.09521    -0.15589    -0.11745    -0.30281
 PX  C  13  -0.02728     0.01581     0.13194    -0.03270    -0.00296     0.08708
 PY  C  13  -0.00612    -0.00748     0.07268    -0.02737    -0.02985    -0.03639
 PZ  C  13   0.21872    -0.08169    -0.00150    -0.02478    -0.00547     0.02984
  
  S  H  14  -0.09476    -0.07308     0.01323    -0.08015    -0.31926    -0.04214
  
  S  H  15  -0.07060    -0.25681     0.10344     0.05671     0.00798     0.02064
  
  S  H  16  -0.00134     0.03925     0.01345    -0.19316     0.24004    -0.05784
  
  S  H  17  -0.05376    -0.00507    -0.01397    -0.22123     0.22460    -0.05555
  
  S  H  18   0.11964     0.17970    -0.09095     0.12399    -0.01815     0.02871
  
  S  H  19  -0.01540     0.07987     0.07040    -0.04140    -0.32679    -0.04478
  
  S  H  20  -0.03890    -0.11442    -0.07399     0.09653     0.11534     0.28415
  
  S  C  21   0.08224     0.08245     0.02451    -0.25124    -0.07893     0.33595
 PX  C  21  -0.02317     0.06251     0.16646     0.04925     0.02014     0.04607
 PY  C  21   0.04082     0.04677     0.10709    -0.00294     0.00512     0.00574
 PZ  C  21  -0.18966     0.03626     0.00508     0.05207     0.01445    -0.03954
  
  S  C  22  -0.12889    -0.18982    -0.34643     0.13425     0.03012    -0.18953
 PX  C  22   0.02325     0.00254     0.00383     0.00631     0.00746     0.00641
 PY  C  22  -0.01031    -0.03292    -0.11354    -0.10637    -0.04318     0.12083
 PZ  C  22   0.14954    -0.02918    -0.00476    -0.02671    -0.00614     0.00819
  
  S  C  23   0.08573     0.16637     0.37228     0.13053     0.06576    -0.09732
 PX  C  23  -0.00547     0.05161     0.08626    -0.07642    -0.01332     0.14396
 PY  C  23  -0.02529    -0.03065    -0.04244     0.07451     0.02795    -0.08903
 PZ  C  23  -0.15329    -0.01109    -0.08586     0.00483    -0.00833    -0.01660
  
  S  C  24  -0.07300    -0.01338    -0.04396    -0.20746    -0.05095     0.32967
 PX  C  24  -0.01329    -0.08225    -0.17820    -0.00210    -0.01737    -0.01531
 PY  C  24  -0.02509    -0.03538    -0.09864     0.00930    -0.00910     0.04565
 PZ  C  24   0.15518    -0.02900     0.02069    -0.03828    -0.00425     0.06224
  
  S  H  25  -0.03280    -0.04924    -0.01334     0.12752     0.03650    -0.25447
  
  S  H  26   0.08769     0.11530     0.20853    -0.10123    -0.03013     0.09658
  
  S  H  27  -0.04445    -0.11239    -0.25499    -0.10627    -0.05754     0.04637
  
  S  H  28   0.06358     0.01276     0.02644     0.10857     0.01981    -0.26696
  
  S  C  29  -0.05622     0.05793     0.28564     0.21494     0.10076    -0.02440
 PX  C  29   0.00314    -0.07137    -0.08875     0.07582     0.01934    -0.17661
 PY  C  29   0.01442     0.02906     0.09752    -0.09610    -0.03954    -0.07176
 PZ  C  29   0.29196    -0.08937    -0.06984    -0.10465    -0.03922     0.02506
  
  S  C  30  -0.00268    -0.12178    -0.29671     0.12076     0.02575    -0.03942
 PX  C  30   0.04838     0.04092    -0.01255    -0.04897    -0.04849    -0.16990
 PY  C  30   0.00542     0.02520     0.11601     0.14370     0.05814    -0.11560
 PZ  C  30  -0.25863     0.08149     0.02550     0.04225     0.01071    -0.03235




    ROOT NO.   61          62          63          64          65          66

             5.18324     5.39359     5.49714     5.78626     6.21040     6.46433
  
  
  S  C   1  -0.15973    -0.23170     0.00411     0.05233     0.03780    -0.01301
 PX  C   1   0.15142     0.07863    -0.02584    -0.13355    -0.09852     0.02868
 PY  C   1   0.07603     0.33544     0.02261     0.03272     0.00059     0.00453
 PZ  C   1   0.03371     0.04934    -0.00124    -0.01390    -0.01102     0.00362
  
  S  C   2  -0.19640    -0.07011     0.03639     0.16288     0.11469    -0.03714
 PX  C   2  -0.13603    -0.15906     0.00931     0.05739     0.04197    -0.01790
 PY  C   2   0.07969     0.07987    -0.01816    -0.14029    -0.17494     0.07875
 PZ  C   2   0.00517     0.01030    -0.00049    -0.00755    -0.01247     0.00664
  
  S  C   3   0.03193    -0.00596     0.00171     0.09763     0.15639    -0.07361
 PX  C   3  -0.16085     0.06777     0.02598     0.04740    -0.08604     0.07251
 PY  C   3  -0.06540    -0.06976     0.02022     0.12809     0.17275    -0.09654
 PZ  C   3  -0.01559    -0.01315     0.00057     0.00217    -0.00195     0.00060
  
  S  C   4  -0.03291     0.06780    -0.00711    -0.10506    -0.18658     0.10733
 PX  C   4   0.12718    -0.04048    -0.03221    -0.13972    -0.09088     0.03089
 PY  C   4   0.10811     0.01415    -0.01662     0.03073     0.14774    -0.08915
 PZ  C   4   0.00607     0.01796     0.00001    -0.01042    -0.01579     0.00864
  
  S  C   5   0.15020    -0.08521    -0.04250    -0.18581    -0.13142     0.04641
 PX  C   5  -0.00019    -0.07595     0.00223     0.08386     0.15324    -0.09039
 PY  C   5   0.05011    -0.20186    -0.03860    -0.16716    -0.15659     0.07258
 PZ  C   5  -0.01136    -0.02295    -0.00065     0.00275     0.00147     0.00017
  
  S  C   6   0.01765    -0.34161    -0.04299    -0.11669    -0.05472     0.01143
 PX  C   6  -0.00463     0.25202     0.03385     0.11601     0.07839    -0.02382
 PY  C   6  -0.12502    -0.06088     0.02121     0.11334     0.08701    -0.03080
 PZ  C   6  -0.00631     0.05982     0.00892     0.02826     0.01735    -0.00538
  
  S  C   7   0.22404    -0.10247    -0.02988    -0.04745     0.10853    -0.08787
 PX  C   7   0.04036    -0.06255    -0.00834     0.05806     0.11977    -0.06164
 PY  C   7  -0.10885     0.04228     0.01388     0.08767    -0.14391     0.20997
 PZ  C   7  -0.00331     0.00617     0.00204     0.01100    -0.00316     0.01200
  
  S  C   8  -0.23533     0.00281     0.04245     0.05128    -0.10105     0.08281
 PX  C   8   0.04971     0.00087    -0.03927    -0.10776     0.04800    -0.11529
 PY  C   8  -0.11694     0.00153     0.01893    -0.01970    -0.21280     0.19499
 PZ  C   8  -0.01056    -0.00221    -0.00186    -0.00541    -0.00021    -0.00528
  
  S  C   9  -0.02417     0.00597     0.04841     0.14834    -0.05654     0.15051
 PX  C   9  -0.17881     0.01979     0.03103     0.02915    -0.09048     0.07703
 PY  C   9  -0.05172     0.03685     0.00623    -0.13294     0.01547    -0.17717
 PZ  C   9  -0.00158     0.00030    -0.00000    -0.01337     0.00037    -0.00987
  
  S  C  10   0.05268     0.02628    -0.00862    -0.13863     0.04892    -0.16215
 PX  C  10   0.15497    -0.05602     0.01598     0.11624     0.03375     0.11032
[...]
  S   H   18    0.1008   -0.0305   -0.0274   -0.0428   -0.0058    0.3182    0.0019   -0.0134
  S   H   19    0.2091   -0.2096    0.2345    0.1279   -0.1200    0.0386   -0.0140   -0.2224
  S   H   20   -0.0698   -0.2655    0.2888   -0.1393   -0.0318   -0.0093    0.0606    0.2002
  S   C   21   -0.1774   -0.1132   -0.0482    0.0307   -0.0361    0.0003    0.0512   -0.0129
  Px  C   21   -0.0943   -0.1037   -0.1697    0.1482   -0.2428    0.0021   -0.1097   -0.0377
  Py  C   21    0.1511    0.1179    0.0522   -0.0445    0.0697    0.0005    0.2965   -0.0767
  Pz  C   21    0.0328    0.0283    0.0284   -0.0249    0.0423   -0.0003    0.0328    0.0017
  S   C   22   -0.0827   -0.0433    0.0414   -0.0324    0.0449   -0.0006   -0.1096    0.0424
  Px  C   22   -0.1100   -0.0704    0.0186   -0.0152    0.0119    0.0031    0.4972   -0.1496
  Py  C   22   -0.1044   -0.0651   -0.0405    0.0313   -0.0517    0.0002   -0.0676    0.0037
  Pz  C   22    0.0057    0.0038    0.0000    0.0001    0.0002   -0.0004   -0.0752    0.0211
  S   C   23    0.0446    0.0243    0.0373   -0.0280    0.0406    0.0006    0.1128   -0.0066
  Px  C   23    0.1320    0.0816   -0.0109    0.0063   -0.0112   -0.0024   -0.2105   -0.0450
  Py  C   23   -0.0117   -0.0031    0.0630   -0.0535    0.0762   -0.0030   -0.4468    0.0694
  Pz  C   23   -0.0239   -0.0143   -0.0036    0.0029   -0.0048    0.0001    0.0014    0.0044
  S   C   24    0.1441    0.0904   -0.0320    0.0170   -0.0072   -0.0006   -0.0652   -0.0409
  Px  C   24   -0.0466   -0.0312   -0.0325    0.0277   -0.0533   -0.0016   -0.1892   -0.0396
  Py  C   24    0.1791    0.1658   -0.1979    0.1734   -0.2394    0.0007    0.1978    0.1609
  Pz  C   24    0.0325    0.0232   -0.0147    0.0113   -0.0127    0.0001    0.0120    0.0070
  S   H   25    0.2402    0.1794    0.1372   -0.1141    0.1790   -0.0008    0.2001   -0.0251
  S   H   26    0.1336    0.0817   -0.0193    0.0141   -0.0090   -0.0021   -0.3137    0.0945
  S   H   27   -0.0744   -0.0486   -0.0412    0.0338   -0.0460    0.0024    0.2923   -0.0222
  S   H   28   -0.2145   -0.1670    0.1449   -0.1212    0.1543   -0.0008   -0.1565   -0.0968
  S   C   29   -0.1141   -0.1288   -0.1316    0.1236   -0.2353    0.0004   -0.0067   -0.0202
  Px  C   29    0.1369    0.0958    0.0071    0.0135   -0.0628    0.0027   -0.0899   -0.0400
  Py  C   29   -0.1189   -0.1653    0.0601   -0.0690    0.1336   -0.0018   -0.0244   -0.0587
  Pz  C   29    0.0037    0.0039    0.0160   -0.0164    0.0330   -0.0004    0.0030    0.0060
  S   C   30    0.1431    0.1435   -0.1346    0.1265   -0.2069    0.0009   -0.0206    0.0049
  Px  C   30    0.0316    0.0979    0.0247   -0.0203    0.0744    0.0006    0.0892    0.1975
  Py  C   30   -0.1446   -0.1444   -0.0371    0.0555   -0.1600   -0.0018    0.0596    0.0660
  Pz  C   30   -0.0057   -0.0027    0.0099   -0.0079    0.0147    0.0002   -0.0004    0.0007


   Root No.      73        74        75        76        77        78        79        80

                22 a"     27 a'     28 a'     23 a"     24 a"     78 ????   29 a'     80 ????

                 9.376     9.545    10.121    10.669    11.044    11.595    11.737    12.175
  
  S   C    1    0.0203   -0.0594    0.0443   -0.0799   -0.0236    0.0308    0.0047    0.0143
  Px  C    1    0.1274   -0.1761   -0.0971   -0.1719    0.1653   -0.1780   -0.0904    0.2047
  Py  C    1   -0.0279   -0.0661    0.1963   -0.0934   -0.1664    0.1878    0.0716   -0.1065
  Pz  C    1    0.0001   -0.0062    0.0081   -0.0058   -0.0042    0.0042    0.0014   -0.0016
  S   C    2   -0.0740    0.0647    0.0807    0.0197   -0.0784    0.0786    0.0068   -0.0026
  Px  C    2    0.1091   -0.1765   -0.0258   -0.2156    0.0920   -0.0933   -0.0879    0.2293
  Py  C    2   -0.2351    0.1247    0.2289   -0.0883   -0.1403    0.1359   -0.0539    0.1505
  Pz  C    2   -0.0196    0.0122    0.0202   -0.0042   -0.0145    0.0140   -0.0028    0.0094
  S   C    3   -0.0106    0.0392    0.0156    0.0508   -0.0376    0.0344    0.0029   -0.0045
  Px  C    3   -0.2350    0.0922    0.2645   -0.0924   -0.0157   -0.1162    0.1254   -0.1705
  Py  C    3   -0.0845    0.0059    0.1405   -0.1324   -0.1618    0.2304   -0.1898    0.4003
  Pz  C    3   -0.0159    0.0038    0.0190   -0.0107   -0.0023   -0.0050    0.0046   -0.0039
  S   C    4   -0.0293    0.0399    0.0056    0.0611    0.0223   -0.0403   -0.0008   -0.0092
  Px  C    4   -0.0388    0.1002   -0.2593   -0.0747    0.1925   -0.1039    0.1155   -0.1917
  Py  C    4   -0.0182    0.1022   -0.1123   -0.0004   -0.0713    0.2343   -0.1977    0.3808
  Pz  C    4   -0.0022    0.0037   -0.0005    0.0062   -0.0002    0.0008   -0.0013    0.0041
  S   C    5   -0.0575    0.0762   -0.0511    0.0548    0.0635   -0.0739   -0.0066    0.0013
  Px  C    5   -0.0012    0.0321   -0.1935   -0.1440    0.1276   -0.0358    0.1220   -0.2011
  Py  C    5    0.2214   -0.2652    0.0610   -0.2123   -0.1004    0.1647    0.0585   -0.0822
  Pz  C    5    0.0122   -0.0167    0.0114   -0.0115   -0.0120    0.0140    0.0016   -0.0016
  S   C    6    0.0683   -0.0623   -0.0593   -0.0672    0.0417   -0.0189    0.0047   -0.0010
  Px  C    6    0.2341   -0.1766   -0.1952   -0.1519    0.1145   -0.0562    0.0048    0.0090
  Py  C    6    0.0590   -0.1259    0.1385   -0.1874   -0.1814    0.2622    0.1302   -0.2023
  Pz  C    6    0.0271   -0.0233   -0.0161   -0.0230    0.0058    0.0031    0.0061   -0.0081
  S   C    7    0.1138   -0.0111   -0.0720    0.0803   -0.0501    0.0810    0.0020    0.0250
  Px  C    7   -0.1524    0.1042    0.1844   -0.0076   -0.0529   -0.0415    0.1520   -0.1762
  Py  C    7    0.3163    0.0089   -0.0980    0.2160   -0.1466    0.1653    0.0955   -0.0102
  Pz  C    7    0.0065    0.0065    0.0051    0.0098   -0.0095    0.0056    0.0125   -0.0096
  S   C    8   -0.0027   -0.0224    0.0763    0.0771    0.0201   -0.0852   -0.0178   -0.0382
  Px  C    8   -0.0493    0.0863    0.0165    0.2191    0.1028   -0.1117   -0.1769    0.1055
  Py  C    8   -0.0313    0.1032   -0.1818   -0.1064    0.0000    0.1378   -0.0369    0.1628
  Pz  C    8   -0.0068    0.0102    0.0025    0.0246    0.0124   -0.0147   -0.0190    0.0102
  S   C    9    0.0030   -0.0386    0.0281   -0.0036   -0.0047   -0.0247    0.0031   -0.0104
  Px  C    9   -0.0681    0.0631    0.0670    0.2683    0.1364   -0.1841   -0.1715    0.0637
  Py  C    9   -0.0491    0.0039   -0.1445    0.1704    0.0609    0.2054    0.3812    0.0478
  Pz  C    9   -0.0052    0.0082    0.0007    0.0203    0.0104   -0.0092   -0.0106    0.0058
  S   C   10   -0.0023   -0.0331   -0.0525    0.0087   -0.0030    0.0362   -0.0003    0.0020
  Px  C   10    0.2763   -0.0033    0.0902    0.2056   -0.2055   -0.0476   -0.2355   -0.0991
  Py  C   10    0.1373    0.0588   -0.1059    0.1341   -0.1196    0.2650    0.3352   -0.0345
  Pz  C   10    0.0185    0.0026    0.0021    0.0135   -0.0130    0.0068    0.0048   -0.0056
  S   C   11   -0.1150   -0.0350   -0.0849   -0.0645    0.0464    0.0551    0.0100    0.0034
  Px  C   11    0.1930   -0.0355    0.0143    0.1858   -0.1541    0.0082   -0.2377   -0.1004
  Py  C   11   -0.2740   -0.1307   -0.2057   -0.0776    0.0387    0.1503   -0.0950   -0.0718
  Pz  C   11   -0.0246   -0.0111   -0.0173   -0.0048    0.0013    0.0113   -0.0081   -0.0063
  S   H   12   -0.1931   -0.0492   -0.1042   -0.0809    0.0714    0.0851    0.0240   -0.0097
  S   C   13    0.0222   -0.0598    0.0743   -0.0769   -0.0289   -0.0723   -0.0140   -0.0063
  Px  C   13    0.0056   -0.1869    0.1440    0.0537    0.0129   -0.1477    0.1913    0.0832
  Py  C   13   -0.0614    0.1013   -0.1217    0.2468    0.0836    0.1020    0.1502    0.0347
  Pz  C   13    0.0019   -0.0137    0.0109   -0.0056   -0.0025   -0.0100    0.0033    0.0031
  S   H   14    0.1965   -0.0212   -0.0975    0.0981   -0.0578    0.0996    0.0136    0.0464
  S   H   15    0.0274   -0.0894    0.0615   -0.0996   -0.0263    0.0336    0.0044    0.0140
  S   H   16   -0.1519    0.1050    0.1288    0.0009   -0.0971    0.0964   -0.0076    0.0245
  S   H   17   -0.1116    0.1431   -0.0896    0.0636    0.0888   -0.0961    0.0056   -0.0175
  S   H   18    0.1420   -0.1018   -0.1268   -0.0850    0.0754   -0.0427    0.0015    0.0071
  S   H   19   -0.0017   -0.0232    0.0906    0.1047    0.0334   -0.1029   -0.0308   -0.0528
  S   H   20    0.0377   -0.1021    0.1044   -0.0979   -0.0449   -0.1013   -0.0205    0.0091
  S   C   21    0.0540    0.0758    0.0628   -0.0182    0.1107    0.0469    0.0235    0.0246
  Px  C   21   -0.1400   -0.0399   -0.1572   -0.1647   -0.1482   -0.1143    0.1262    0.1432
  Py  C   21    0.1742    0.2971    0.1176   -0.1376    0.2251    0.0736    0.1025    0.1249
  Pz  C   21    0.0299    0.0212    0.0286    0.0157    0.0312    0.0189   -0.0139   -0.0152
  S   C   22   -0.0103   -0.0808    0.0345    0.0740    0.0272    0.0169    0.0019   -0.0002
  Px  C   22    0.0213    0.2395   -0.1062   -0.1729   -0.0745   -0.0385   -0.0110   -0.0093
  Py  C   22    0.0887    0.1111    0.1496   -0.0798    0.3008    0.0951    0.2003    0.2318
  Pz  C   22    0.0001   -0.0302    0.0202    0.0226    0.0203    0.0078    0.0102    0.0108
  S   C   23   -0.0534   -0.0664   -0.0533    0.0653   -0.0725   -0.0188   -0.0059    0.0018
  Px  C   23    0.1281    0.2567   -0.0176   -0.2428   -0.0972   -0.0598   -0.1565   -0.2003
  Py  C   23    0.1297    0.0607    0.1870   -0.0214    0.2536    0.0802    0.1177    0.1276
  Pz  C   23   -0.0018   -0.0097    0.0095    0.0092    0.0184    0.0072    0.0141    0.0167
  S   C   24    0.0413    0.1092   -0.0418   -0.0561   -0.0831   -0.0420   -0.0166   -0.0179
  Px  C   24    0.1279    0.2506    0.0253   -0.2565    0.0055   -0.0101   -0.1498   -0.1992
  Py  C   24   -0.0831   -0.2700    0.1463    0.0076    0.2313    0.1140   -0.0664   -0.0818
  Pz  C   24   -0.0075   -0.0188    0.0035    0.0112    0.0066    0.0043    0.0031    0.0043
  S   H   25    0.1406    0.1643    0.1140   -0.0107    0.1686    0.0813    0.0070    0.0148
  S   H   26   -0.0098   -0.1479    0.0683    0.1072    0.0504    0.0267    0.0069    0.0073
  S   H   27   -0.1037   -0.1079   -0.0848    0.0837   -0.0908   -0.0210   -0.0067    0.0004
  S   H   28    0.0797    0.2108   -0.0698   -0.0739   -0.1252   -0.0689   -0.0052   -0.0124
  S   C   29   -0.0180    0.0368   -0.0058   -0.0625    0.0429    0.0115    0.0223    0.0200
  Px  C   29   -0.1741   -0.0840   -0.2169   -0.1326   -0.2537   -0.1497    0.1031    0.1197
  Py  C   29   -0.1648   -0.1065   -0.1707    0.0288    0.1486    0.3090   -0.2698   -0.1827
  Pz  C   29    0.0116   -0.0018    0.0122    0.0164    0.0103    0.0101   -0.0112   -0.0112
  S   C   30    0.0169    0.0413    0.0051   -0.0707   -0.0154   -0.0133   -0.0181   -0.0174
  Px  C   30    0.0293   -0.2170    0.2228   -0.0283   -0.0011   -0.2127    0.1636    0.0622
  Py  C   30   -0.0461   -0.0891    0.0838   -0.0517    0.3269    0.2751   -0.2367   -0.2151
  Pz  C   30    0.0021   -0.0014    0.0031    0.0024   -0.0059   -0.0103    0.0114    0.0078


   Root No.      81        82        83        84

                30 a'     31 a'     25 a"     26 a"  

                12.544    12.745    13.150    14.470
  
  S   C    1    0.0533    0.0399   -0.0020    0.0376
  Px  C    1    0.0127    0.3159   -0.1389    0.1043
  Py  C    1    0.1204   -0.1213    0.0912    0.0154
  Pz  C    1    0.0039   -0.0009    0.0015    0.0012
  S   C    2    0.0215   -0.0213    0.0210    0.0211
  Px  C    2    0.0605    0.3382   -0.1278    0.1472
  Py  C    2    0.0902    0.1412   -0.0113    0.1170
  Pz  C    2    0.0059    0.0077   -0.0001    0.0078
  S   C    3   -0.0048   -0.0048   -0.0038    0.0263
  Px  C    3    0.1556    0.2691   -0.2123    0.2298
  Py  C    3    0.0374    0.1596    0.0544    0.0933
  Pz  C    3    0.0118    0.0211   -0.0129    0.0170
  S   C    4   -0.0025   -0.0011    0.0070    0.0266
  Px  C    4    0.3222   -0.0232    0.1140    0.1874
  Py  C    4    0.1148   -0.0025    0.2296    0.1091
  Pz  C    4   -0.0022    0.0006    0.0021    0.0028
  S   C    5   -0.0075    0.0293   -0.0167    0.0212
  Px  C    5    0.3334   -0.0440    0.1143    0.1562
  Py  C    5    0.1849   -0.0952    0.1099    0.0416
  Pz  C    5    0.0052   -0.0058    0.0046   -0.0011
  S   C    6    0.0629    0.0260    0.0103    0.0355
  Px  C    6    0.1223    0.0666    0.0131    0.0706
  Py  C    6    0.2655   -0.2063    0.1786    0.0487
  Pz  C    6    0.0219   -0.0014    0.0075    0.0079
  S   C    7   -0.0547   -0.0292    0.0099    0.0119
  Px  C    7    0.1173    0.2524   -0.2138    0.2564
  Py  C    7   -0.0679    0.0960   -0.0818    0.1542
  Pz  C    7    0.0039    0.0184   -0.0148    0.0212
  S   C    8   -0.0384   -0.0293   -0.0099    0.0119
  Px  C    8    0.2053   -0.1043    0.2352    0.2406
  Py  C    8    0.1607    0.0269    0.1486    0.1021
  Pz  C    8    0.0194   -0.0107    0.0229    0.0237
  S   C    9   -0.0579   -0.0137    0.0004    0.0006
  Px  C    9    0.1416   -0.1206    0.2250    0.2472
  Py  C    9   -0.1673    0.1784    0.1557    0.1319
  Pz  C    9    0.0146   -0.0066    0.0172    0.0182
  S   C   10   -0.0508   -0.0417   -0.0030    0.0058
  Px  C   10    0.0712   -0.0679   -0.2167    0.2919
  Py  C   10   -0.1054    0.2489   -0.0844    0.1523
  Pz  C   10   -0.0007    0.0077   -0.0121    0.0176
  S   C   11   -0.0601   -0.0375   -0.0074   -0.0055
  Px  C   11    0.0086   -0.1250   -0.2225    0.2969
  Py  C   11   -0.1289   -0.1061   -0.1357    0.1476
  Pz  C   11   -0.0079   -0.0062   -0.0104    0.0114
  S   H   12   -0.0569   -0.0020   -0.0023   -0.0124
  S   C   13   -0.0506   -0.0325    0.0081   -0.0033
  Px  C   13   -0.2023   -0.0193    0.2782    0.2411
  Py  C   13   -0.0306    0.0834    0.1404    0.1416
  Pz  C   13   -0.0078   -0.0037    0.0083    0.0073
  S   H   14   -0.0580   -0.0085    0.0174    0.0063
  S   H   15    0.0590    0.0365    0.0023    0.0347
  S   H   16    0.0292   -0.0118    0.0265    0.0185
  S   H   17   -0.0039    0.0342   -0.0260    0.0164
  S   H   18    0.0623    0.0432    0.0012    0.0361
  S   H   19   -0.0103   -0.0385   -0.0085    0.0147
  S   H   20   -0.0284   -0.0448    0.0078   -0.0022
  S   C   21    0.0154   -0.0154   -0.0204   -0.0251
  Px  C   21   -0.1358   -0.2846   -0.1482    0.2103
  Py  C   21   -0.0348   -0.1967   -0.1477    0.0758
  Pz  C   21    0.0152    0.0301    0.0147   -0.0236
  S   C   22    0.0511    0.0409    0.0097   -0.0436
  Px  C   22   -0.1096   -0.0716   -0.0067    0.0837
  Py  C   22    0.0017   -0.3024   -0.2434    0.0983
  Pz  C   22    0.0165   -0.0008   -0.0077   -0.0086
  S   C   23    0.0638    0.0323   -0.0106   -0.0440
  Px  C   23   -0.2502    0.1067    0.2184    0.0929
  Py  C   23    0.0101   -0.1483   -0.1182    0.0406
  Pz  C   23    0.0112   -0.0140   -0.0167   -0.0014
  S   C   24   -0.0003    0.0208    0.0128   -0.0253
  Px  C   24   -0.2991    0.0779    0.2218    0.1401
  Py  C   24   -0.1654   -0.0068    0.0778    0.1237
  Pz  C   24    0.0079   -0.0010   -0.0052   -0.0036
  S   H   25    0.0227   -0.0118   -0.0311   -0.0201
  S   H   26    0.0650    0.0378   -0.0010   -0.0444
  S   H   27    0.0661    0.0367   -0.0068   -0.0416
  S   H   28   -0.0028    0.0236    0.0267   -0.0173
  S   C   29   -0.0168   -0.0207    0.0025   -0.0219
  Px  C   29   -0.1370   -0.2687   -0.1453    0.2430
  Py  C   29   -0.0958   -0.0569   -0.1848    0.1546
  Pz  C   29    0.0095    0.0182    0.0067   -0.0099
  S   C   30   -0.0180   -0.0026   -0.0105   -0.0223
  Px  C   30   -0.2423   -0.0421    0.2756    0.2229
  Py  C   30   -0.1864    0.0499    0.0455    0.1087
  Pz  C   30   -0.0008   -0.0025    0.0050    0.0033


              NET ATOMIC CHARGES AND DIPOLE CONTRIBUTIONS

  ATOM NO.   TYPE          CHARGE      No. of ELECS.   s-Pop       p-Pop       
    1          C          -0.025791        4.0258     1.10562     2.92017
    2          C          -0.028773        4.0288     1.09863     2.93015
    3          C           0.022345        3.9777     1.05790     2.91975
    4          C           0.006723        3.9933     1.07417     2.91910
    5          C          -0.036327        4.0363     1.10596     2.93037
    6          C          -0.029039        4.0290     1.09332     2.93572
    7          C          -0.033419        4.0334     1.09615     2.93726
    8          C          -0.034065        4.0341     1.10586     2.92821
    9          C           0.011059        3.9889     1.07147     2.91747
   10          C           0.015942        3.9841     1.06571     2.91835
   11          C          -0.038380        4.0384     1.10242     2.93596
   12          H           0.015214        0.9848     0.98479
   13          C          -0.036337        4.0363     1.10524     2.93109
   14          H           0.024869        0.9751     0.97513
   15          H           0.017309        0.9827     0.98269
   16          H           0.026402        0.9736     0.97360
   17          H           0.027150        0.9729     0.97285
   18          H           0.029146        0.9709     0.97085
   19          H           0.028356        0.9716     0.97164
   20          H           0.025637        0.9744     0.97436
   21          C          -0.024535        4.0245     1.07504     2.94949
   22          C          -0.022189        4.0222     1.08774     2.93445
   23          C          -0.029504        4.0295     1.10171     2.92780
   24          C          -0.024270        4.0243     1.09798     2.92629
   25          H           0.027146        0.9729     0.97285
   26          H           0.018067        0.9819     0.98193
   27          H           0.028468        0.9715     0.97153
   28          H           0.021976        0.9780     0.97802
   29          C           0.011029        3.9890     1.07229     2.91668
   30          C           0.005794        3.9942     1.07746     2.91675
 DIPOLE           X         Y         Z       TOTAL
 POINT-CHG.    -0.022     0.088    -0.108     0.141
 HYBRID        -0.075     0.120    -0.580     0.597
 SUM           -0.097     0.208    -0.687     0.725


          ATOMIC ORBITAL ELECTRON POPULATIONS

     Atom    s        px        py        pz   
    1  C   1.10562   0.97585   0.94869   0.99563
    2  C   1.09863   0.98116   0.94422   1.00476
    3  C   1.05790   0.97203   0.96522   0.98250
    4  C   1.07417   0.96163   0.97320   0.98427
    5  C   1.10596   0.96625   0.95846   1.00566
    6  C   1.09332   0.95326   0.99042   0.99204
    7  C   1.09615   0.96725   0.94724   1.02277
    8  C   1.10586   0.96823   0.95485   1.00513
    9  C   1.07147   0.96895   0.96716   0.98136
   10  C   1.06571   0.96480   0.96963   0.98392
   11  C   1.10242   0.95264   0.96261   1.02071
   12  H   0.98479
   13  C   1.10524   0.96471   0.95183   1.01456
   14  H   0.97513
   15  H   0.98269
   16  H   0.97360
   17  H   0.97285
   18  H   0.97085
   19  H   0.97164
   20  H   0.97436
   21  C   1.07504   0.97183   0.97007   1.00760
   22  C   1.08774   0.95099   0.99178   0.99168
   23  C   1.10171   0.97969   0.95198   0.99613
   24  C   1.09798   0.97430   0.95430   0.99769
   25  H   0.97285
   26  H   0.98193
   27  H   0.97153
   28  H   0.97802
   29  C   1.07229   0.96721   0.97161   0.97786
   30  C   1.07746   0.96743   0.96742   0.98189

 **********************
 *                    *
 * JOB ENDED NORMALLY *
 *                    *
 **********************



 TOTAL JOB TIME:             0.80 SECONDS

 == MOPAC DONE ==


          MOPAC Job: "./tetraceneTraj/tetracene_1017.mop" ended normally on Feb 15, 2023, at 11:29.

rm: cannot remove ./tetraceneTraj/tetracene_1017.cim: No such file or directory
rm: cannot remove ./tetraceneTraj/tetracene_1017.end: No such file or directory
rm: cannot remove ./tetraceneTraj/tetracene_1017.log: No such file or directory
rm: cannot remove ./tetraceneTraj/tetracene_1017.temp: No such file or directory
rm: cannot remove ./tetraceneTraj/tetracene_1017.ple: No such file or directory
rm: cannot remove ./tetraceneTraj/tetracene_1017.sts: No such file or directory
