 *******************************************************************************
 ** Site#:    0         For non-commercial use only    Version 20.173L 64BITS **
 *******************************************************************************
 ** Cite this program as: MOPAC2016, Version: 20.173L, James J. P. Stewart,   **
 ** Stewart Computational Chemistry, web-site: HTTP://OpenMOPAC.net.          **
 *******************************************************************************
 **                                                                           **
 **                                MOPAC2016                                  **
 **                                                                           **
 *******************************************************************************

                              INDO CALCULATION RESULTS

 *******************************************************************************
 *  CALCULATION DONE:                                Wed Feb 15 11:39:39 2023  *
 *  INDO       - The INDO Hamiltonian to be used
 *
 *
 *
 *                 CHARGE ON SYSTEM = 0
 *
 *
 *
 *  C.I.=(N,M) - 3 DOUBLY FILLED LEVELS USED IN A C.I. INVOLVING 6 M.O.'S
 *  T=         - A TIME OF 172800.0 SECONDS REQUESTED
 *  DUMP=N     - RESTART FILE WRITTEN EVERY 7200.0 SECONDS REQUESTED
 *  RELSCF     - DEFAULT SCF CRITERION MULTIPLIED BY 0.0000
 *              (DEFAULT SCF CRITERION = 0.00010)
 *  ALLVEC     - PRINT ALL EIGENVECTORS
 **********
 *  WARNING: Specified print options may not behave as expected with INDO
 **********
 *******************************************************************************
INDO C.I.=(6,3) AllVEC CHARGE=0 RELSCF=0.000001


   ATOM   CHEMICAL          X               Y               Z
  NUMBER   SYMBOL      (ANGSTROMS)     (ANGSTROMS)     (ANGSTROMS)
 
     1       C         18.47322736  *  19.55366185  *  22.36870834  *
     2       C         19.87068995  *  19.47881093  *  22.43551563  *
     3       C         20.68009727  *  20.68874187  *  22.42821054  *
     4       C         19.98338311  *  21.97874611  *  22.42774577  *
     5       C         18.53017435  *  21.97280926  *  22.43488124  *
     6       C         17.80573128  *  20.82155914  *  22.37955832  *
     7       C         22.07292524  *  20.65874626  *  22.46273048  *
     8       C         20.66283173  *  23.21498135  *  22.50534138  *
     9       C         22.11311565  *  23.15820824  *  22.56398266  *
    10       C         22.83395178  *  21.85458910  *  22.48401656  *
    11       C         24.24836042  *  21.83716022  *  22.59520961  *
    12       H         24.70688541  *  20.85712683  *  22.69204289  *
    13       C         22.96565042  *  24.31901678  *  22.63648700  *
    14       H         22.66806171  *  19.74013511  *  22.49760716  *
    15       H         17.86083617  *  18.67234598  *  22.38866349  *
    16       H         20.40102257  *  18.53589915  *  22.49606053  *
    17       H         17.98552784  *  22.95112546  *  22.38458907  *
    18       H         16.70920320  *  20.84393387  *  22.25803971  *
    19       H         20.12985471  *  24.15707217  *  22.49587590  *
    20       H         22.52695599  *  25.35824232  *  22.70281852  *
    21       C         26.53117607  *  22.99957761  *  22.59651326  *
    22       C         27.21128340  *  24.19716614  *  22.47145364  *
    23       C         26.48724024  *  25.45557916  *  22.50986060  *
    24       C         25.11609152  *  25.52497704  *  22.54338027  *
    25       H         27.09759365  *  22.03602005  *  22.56971799  *
    26       H         28.27895679  *  24.16119747  *  22.22105658  *
    27       H         27.15720609  *  26.35780711  *  22.49828422  *
    28       H         24.54096305  *  26.46621213  *  22.47290821  *
    29       C         25.05046477  *  23.00122569  *  22.59819424  *
    30       C         24.35830829  *  24.27292635  *  22.58528108  *
 


          CARTESIAN COORDINATES 

    NO.       ATOM           X           Y           Z

     1         C         18.4732     19.5537     22.3687
     2         C         19.8707     19.4788     22.4355
     3         C         20.6801     20.6887     22.4282
     4         C         19.9834     21.9787     22.4277
     5         C         18.5302     21.9728     22.4349
     6         C         17.8057     20.8216     22.3796
     7         C         22.0729     20.6587     22.4627
     8         C         20.6628     23.2150     22.5053
     9         C         22.1131     23.1582     22.5640
    10         C         22.8340     21.8546     22.4840
    11         C         24.2484     21.8372     22.5952
    12         H         24.7069     20.8571     22.6920
    13         C         22.9657     24.3190     22.6365
    14         H         22.6681     19.7401     22.4976
    15         H         17.8608     18.6723     22.3887
    16         H         20.4010     18.5359     22.4961
    17         H         17.9855     22.9511     22.3846
    18         H         16.7092     20.8439     22.2580
    19         H         20.1299     24.1571     22.4959
    20         H         22.5270     25.3582     22.7028
    21         C         26.5312     22.9996     22.5965
    22         C         27.2113     24.1972     22.4715
    23         C         26.4872     25.4556     22.5099
    24         C         25.1161     25.5250     22.5434
    25         H         27.0976     22.0360     22.5697
    26         H         28.2790     24.1612     22.2211
    27         H         27.1572     26.3578     22.4983
    28         H         24.5410     26.4662     22.4729
    29         C         25.0505     23.0012     22.5982
    30         C         24.3583     24.2729     22.5853

           Empirical Formula: C18 H12  =    30 atoms



      MOLECULAR POINT GROUP   :   C1  


      RHF CALCULATION, NO. OF DOUBLY OCCUPIED LEVELS = 42

 WARNING: INDO only performs single-point calculations
  SCF CRITERION =    0.1000E-09

 Summary of symmetry occupancy in each shell:

 SHELL     
    1   42
    v   42
 TOTAL  84




    ROOT NO.    1           2           3           4           5           6

           -44.68409   -43.15887   -40.45256   -37.10353   -35.73031   -34.17473
  
  
  S  C   1   0.13541    -0.22073    -0.25814    -0.24529    -0.09791     0.09899
 PX  C   1   0.03459    -0.04897    -0.03748    -0.00257    -0.04949     0.08092
 PY  C   1   0.04904    -0.07693    -0.08167    -0.06368     0.01850    -0.04593
 PZ  C   1   0.00294    -0.00459    -0.00485    -0.00376    -0.00272     0.00365
  
  S  C   2   0.16561    -0.23378    -0.19645    -0.09507    -0.20632     0.26991
 PX  C   2  -0.00521     0.02904     0.07444     0.10921    -0.03315     0.04408
 PY  C   2   0.06635    -0.08682    -0.05630    -0.00125    -0.01746     0.01877
 PZ  C   2  -0.00097     0.00217     0.00343     0.00365     0.00028    -0.00029
  
  S  C   3   0.28429    -0.28533    -0.03537     0.18475    -0.17325     0.21770
 PX  C   3  -0.00016     0.05954     0.14242     0.13234    -0.06951     0.04779
 PY  C   3   0.05416    -0.02485     0.06101     0.09208     0.11263    -0.11952
 PZ  C   3   0.00324    -0.00154     0.00327     0.00481    -0.00179     0.00171
  
  S  C   4   0.28241    -0.28806    -0.04853     0.17139     0.21300    -0.17484
 PX  C   4   0.04128     0.01563     0.13085     0.15268    -0.02741     0.08384
 PY  C   4  -0.03209     0.06230     0.07700     0.05325     0.13623    -0.11741
 PZ  C   4   0.00442    -0.00261     0.00389     0.00710     0.00565    -0.00317
  
  S  C   5   0.16966    -0.24289    -0.21367    -0.11743     0.18381    -0.26522
 PX  C   5   0.05093    -0.05413    -0.00379     0.06277     0.04818    -0.02135
 PY  C   5  -0.04291     0.07484     0.09548     0.09465     0.04089    -0.02048
 PZ  C   5  -0.00187     0.00360     0.00514     0.00539    -0.00143     0.00416
  
  S  C   6   0.13764    -0.22504    -0.26535    -0.25545     0.03880    -0.12579
 PX  C   6   0.06101    -0.09283    -0.09077    -0.05626     0.00298    -0.00850
 PY  C   6   0.00300    -0.00105     0.00858     0.02474     0.06149    -0.08869
 PZ  C   6   0.00118    -0.00159    -0.00101     0.00043     0.00037     0.00002
  
  S  C   7   0.24650    -0.12591     0.18198     0.23384    -0.30307     0.16981
 PX  C   7  -0.03287     0.07223     0.03890    -0.08233    -0.02578    -0.08970
 PY  C   7   0.07836    -0.01492     0.08965     0.05930     0.00896    -0.04332
 PZ  C   7   0.00204     0.00121     0.00343    -0.00153    -0.00236    -0.00243
  
  S  C   8   0.22347    -0.12599     0.14062     0.21210     0.34525    -0.17101
 PX  C   8   0.04031     0.02489     0.08593     0.01035     0.00481     0.06989
 PY  C   8  -0.07427     0.06729    -0.02279    -0.09824    -0.01343     0.03736
 PZ  C   8  -0.00152     0.00283     0.00132    -0.00362    -0.00136     0.00416
  
  S  C   9   0.30755     0.01555     0.28641    -0.00363     0.23172    -0.00386
 PX  C   9   0.02885     0.08965     0.02479    -0.18753    -0.07962     0.05043
 PY  C   9  -0.05326     0.04277    -0.05321    -0.09860     0.10915     0.03698
 PZ  C   9  -0.00466     0.00362    -0.00424    -0.00935    -0.00125     0.00242
  
  S  C  10   0.32492     0.01870     0.31739     0.00102    -0.20725    -0.03240
 PX  C  10  -0.02458     0.08633    -0.02360    -0.18656    -0.07682    -0.07369
 PY  C  10   0.04034     0.05075     0.02798    -0.10832     0.13915    -0.02838
 PZ  C  10   0.00914     0.00456     0.00938    -0.00991    -0.00480    -0.00433
  
  S  C  11   0.23819     0.14793     0.16460    -0.21784    -0.28731    -0.21716
 PX  C  11  -0.04959     0.01799    -0.09695     0.00840     0.01872    -0.06380
 PY  C  11   0.06651     0.07353     0.00852    -0.10217     0.02808    -0.03436
 PZ  C  11  -0.00347    -0.00112    -0.00368     0.00126     0.00353    -0.00016
  
  S  H  12   0.07541     0.04165     0.05503    -0.05431    -0.15381    -0.10347
  
  S  C  13   0.23138     0.15899     0.12885    -0.23855     0.28068     0.20678
 PX  C  13   0.03723     0.07655    -0.04195    -0.08004    -0.01612     0.08097
 PY  C  13  -0.07414    -0.02320    -0.08452     0.06374     0.00476     0.06049
 PZ  C  13  -0.00653    -0.00356    -0.00445     0.00475    -0.00572    -0.00267
  
  S  H  14   0.07773    -0.03413     0.06042     0.06253    -0.16315     0.07417
  
  S  H  15   0.03587    -0.06173    -0.08104    -0.09223    -0.04113     0.04431
  
  S  H  16   0.05074    -0.06842    -0.05124    -0.01736    -0.10430     0.13634
  
  S  H  17   0.04953    -0.06892    -0.05729    -0.02797     0.09671    -0.13182
  
  S  H  18   0.03527    -0.06097    -0.08082    -0.09314     0.01757    -0.05700
  
  S  H  19   0.06705    -0.03827     0.03643     0.05603     0.16477    -0.08585
  
  S  H  20   0.06804     0.04965     0.02831    -0.06480     0.14191     0.11422
  
  S  C  21   0.14262     0.22289    -0.21381     0.14111    -0.15988    -0.29131
 PX  C  21  -0.04572    -0.05535     0.01245     0.05077     0.02786     0.02694
 PY  C  21   0.03793     0.07125    -0.09605     0.09450     0.01196     0.00931
 PZ  C  21  -0.00368    -0.00655     0.00835    -0.00871     0.00373     0.00792
  
  S  C  22   0.11775     0.20902    -0.26417     0.26648    -0.07382    -0.14692
 PX  C  22  -0.05295    -0.08791     0.09327    -0.06232     0.00847     0.00833
 PY  C  22  -0.00357    -0.00296    -0.00540     0.01737     0.04321     0.09527
 PZ  C  22   0.00304     0.00506    -0.00524     0.00285    -0.00110    -0.00189
  
  S  C  23   0.12085     0.21341    -0.26600     0.25307     0.04054     0.10698
 PX  C  23  -0.03279    -0.05105     0.04402    -0.00543    -0.04536    -0.09682
 PY  C  23  -0.04349    -0.07382     0.08330    -0.06725     0.02368     0.05049
 PZ  C  23   0.00087     0.00128    -0.00079    -0.00085     0.00092     0.00195
  
  S  C  24   0.15255     0.23651    -0.21966     0.10606     0.15868     0.30330
 PX  C  24   0.00329     0.02474    -0.07106     0.11285    -0.04527    -0.05023
 PY  C  24  -0.06164    -0.08874     0.06461    -0.00554    -0.01692    -0.02200
 PZ  C  24   0.00024    -0.00010     0.00154    -0.00349     0.00034    -0.00045
  
  S  H  25   0.04016     0.06105    -0.05596     0.03811    -0.07601    -0.13733
  
  S  H  26   0.03031     0.05667    -0.08007     0.09635    -0.03168    -0.06797
  
  S  H  27   0.02963     0.05541    -0.07797     0.08963     0.01504     0.04191
  
  S  H  28   0.04662     0.06922    -0.05806     0.01728     0.08462     0.15307
  
  S  C  29   0.26268     0.29664    -0.06873    -0.15437    -0.15570    -0.21910
 PX  C  29  -0.05169    -0.00554    -0.12297     0.16783    -0.02843    -0.07059
 PY  C  29   0.03130     0.06553    -0.08655     0.05184     0.09912     0.11930
 PZ  C  29  -0.00235    -0.00298     0.00199    -0.00160     0.00120     0.00152
  
  S  C  30   0.27218     0.31133    -0.08068    -0.17702     0.15764     0.21938
 PX  C  30  -0.00438     0.04760    -0.13453     0.14243    -0.07514    -0.06241
 PY  C  30  -0.05211    -0.02843    -0.06345     0.09694     0.09129     0.15664
 PZ  C  30   0.00003    -0.00066     0.00277    -0.00492     0.00067     0.00014




    ROOT NO.    7           8           9          10          11          12

           -31.76543   -31.39340   -28.83172   -28.33577   -27.02284   -25.99895
  
  
  S  C   1   0.10158     0.30078     0.20206     0.24599    -0.01877     0.19694
 PX  C   1   0.12418    -0.06779     0.10187    -0.16349    -0.05923     0.04513
 PY  C   1  -0.07810     0.00401    -0.10503    -0.01616     0.09234    -0.06306
 PZ  C   1   0.00527     0.00264     0.00693    -0.00131    -0.00252     0.00575
  
  S  C   2   0.29087     0.01352     0.18373    -0.12848    -0.14841    -0.03976
 PX  C   2   0.00474    -0.14245    -0.13240    -0.10312    -0.02482    -0.22270
 PY  C   2   0.00565    -0.08011    -0.06856    -0.09112     0.10507    -0.02974
 PZ  C   2  -0.00112    -0.00334    -0.00324    -0.00158    -0.00206    -0.00591
  
  S  C   3   0.13888    -0.21900    -0.11543    -0.10969     0.13115    -0.12725
 PX  C   3  -0.07401     0.03196    -0.13220     0.16095    -0.03800    -0.11786
 PY  C   3  -0.08322    -0.02230     0.00432     0.09098     0.17479     0.18917
 PZ  C   3  -0.00007    -0.00107    -0.00139     0.00177    -0.00075    -0.00247
  
  S  C   4  -0.00472    -0.25938     0.10779    -0.09749     0.05302     0.22562
 PX  C   4   0.09912     0.05416     0.03555     0.17142     0.13024    -0.01615
 PY  C   4  -0.01583     0.03546     0.12354     0.09888    -0.18907     0.01936
 PZ  C   4   0.00299    -0.00154     0.00716     0.00393    -0.00202     0.00372
  
  S  C   5  -0.26066    -0.12398    -0.16296    -0.15387    -0.10028    -0.08653
 PX  C   5   0.07171    -0.13593     0.14244    -0.11487    -0.01263     0.22625
 PY  C   5   0.03123    -0.07046     0.07978    -0.02322    -0.12596     0.04261
 PZ  C   5   0.00773    -0.00195     0.00884    -0.00015    -0.00044     0.00873
  
  S  C   6  -0.22930     0.21561    -0.20583     0.20686     0.07722    -0.18472
 PX  C   6   0.00892    -0.03099     0.02878    -0.09601     0.02032     0.09000
 PY  C   6  -0.10730    -0.12112    -0.13963    -0.14939    -0.03984    -0.15385
 PZ  C   6   0.00175    -0.00477     0.00236    -0.00864    -0.00121     0.00473
  
  S  C   7  -0.17246    -0.02227    -0.22388     0.12061    -0.14206    -0.07342
 PX  C   7  -0.15964     0.10965     0.06400     0.01110    -0.16130     0.16506
 PY  C   7  -0.07596     0.07090     0.01496     0.08217     0.13714     0.16028
 PZ  C   7  -0.00551     0.00417     0.00291    -0.00082    -0.00507     0.00502
  
  S  C   8   0.14286     0.04747     0.23302     0.14525    -0.19432    -0.06807
 PX  C   8   0.08107     0.17694    -0.05155     0.07495     0.10837    -0.15655
 PY  C   8   0.03313     0.08402    -0.02609    -0.03639    -0.14610    -0.16221
 PZ  C   8   0.00387     0.00869    -0.00335    -0.00035    -0.00119    -0.01154
  
  S  C   9   0.16473     0.31180    -0.00103    -0.00982     0.10372    -0.17052
 PX  C   9  -0.05016     0.00830    -0.10282    -0.19427     0.09551     0.07672
 PY  C   9   0.11601     0.01304    -0.04583    -0.08660    -0.19141    -0.16144
 PZ  C   9   0.00141    -0.00146    -0.00470    -0.01084    -0.00982    -0.00527
  
  S  C  10  -0.24660     0.18928     0.00857    -0.01696     0.04540     0.18831
 PX  C  10  -0.05681    -0.04340     0.12267    -0.16972    -0.13596     0.02697
 PY  C  10   0.14551     0.05984     0.05069    -0.10485     0.22143    -0.05999
 PZ  C  10  -0.00538     0.00665     0.00698    -0.01153     0.00076     0.00397
  
  S  C  11  -0.13968    -0.06176     0.24792    -0.10609    -0.15553    -0.03051
 PX  C  11   0.14203    -0.13038     0.04106     0.09676    -0.01203    -0.18904
 PY  C  11   0.10205    -0.05994     0.02116    -0.03642     0.20336    -0.07077
 PZ  C  11   0.00639    -0.00472     0.00106     0.00381    -0.00169    -0.00947
  
  S  H  12  -0.08671    -0.03176     0.11660    -0.00833    -0.20287    -0.02793
  
  S  C  13   0.14497     0.07789    -0.23892    -0.13263    -0.17482    -0.01046
 PX  C  13  -0.07309    -0.16922    -0.05641     0.02037     0.05331     0.21598
 PY  C  13  -0.05528    -0.09369    -0.03749     0.09931    -0.17531     0.08463
 PZ  C  13  -0.00280    -0.00427     0.00103     0.00296    -0.00478     0.00094
  
  S  H  14  -0.09768    -0.01232    -0.09111     0.02259    -0.20470    -0.06691
  
  S  H  15   0.04716     0.16928     0.11872     0.18655    -0.03423     0.11799
  
  S  H  16   0.13961     0.00622     0.08589    -0.04779    -0.14344    -0.07414
  
  S  H  17  -0.12730    -0.05686    -0.07541    -0.05425    -0.11852    -0.09004
  
  S  H  18  -0.11770     0.12063    -0.12021     0.15646     0.02662    -0.14986
  
  S  H  19   0.06214     0.01495     0.11393     0.03275    -0.21426    -0.07711
  
  S  H  20   0.05235     0.02490    -0.11717    -0.01361    -0.20451    -0.01019
  
  S  C  21   0.26978     0.00945    -0.19582     0.14655    -0.13818     0.02876
 PX  C  21  -0.00271     0.14431    -0.12817    -0.14023    -0.08821     0.18015
 PY  C  21   0.00189     0.07825    -0.06440    -0.04635     0.06472     0.09217
 PZ  C  21  -0.00791    -0.00976     0.01329     0.00606     0.00569    -0.01371
  
  S  C  22   0.10297     0.28027    -0.18331    -0.24587    -0.04330     0.17631
 PX  C  22   0.00279     0.02441    -0.03336    -0.09030    -0.05714     0.06410
 PY  C  22  -0.13887     0.05047     0.16011    -0.13919     0.10072    -0.10951
 PZ  C  22   0.00261    -0.00582     0.00053     0.01554     0.00345    -0.00668
  
  S  C  23  -0.22158     0.20959     0.23283    -0.23996     0.08393    -0.17775
 PX  C  23   0.08993     0.10218    -0.09147    -0.17259     0.00776     0.05840
 PY  C  23  -0.05993    -0.03422     0.09053    -0.00490    -0.03242    -0.08979
 PZ  C  23  -0.00091    -0.00570     0.00177     0.00972     0.00092    -0.00276
  
  S  C  24  -0.27313    -0.08108     0.16315     0.13002    -0.09226    -0.02774
 PX  C  24  -0.05900     0.11217     0.15854    -0.09702     0.12240    -0.17843
 PY  C  24  -0.02557     0.06638     0.06601    -0.08645    -0.05559    -0.08322
 PZ  C  24   0.00449    -0.00493    -0.00700     0.00495    -0.00016     0.00582
  
  S  H  25   0.12657     0.00696    -0.09878     0.05454    -0.13257     0.02106
  
  S  H  26   0.05387     0.15026    -0.11304    -0.17311    -0.05714     0.13097
  
  S  H  27  -0.10336     0.11831     0.12401    -0.17865     0.02927    -0.11073
  
  S  H  28  -0.12605    -0.03914     0.06079     0.05068    -0.12067    -0.00092
  
  S  C  29   0.14777    -0.24598     0.10620     0.14348     0.13286    -0.17224
 PX  C  29   0.08104     0.01674    -0.06979     0.16439    -0.09993    -0.05262
 PY  C  29   0.00171    -0.01695    -0.11136     0.07053     0.13122     0.10808
 PZ  C  29   0.00014    -0.00251     0.00098     0.00140    -0.00163    -0.00398
  
  S  C  30  -0.01064    -0.22875    -0.11608     0.11265     0.04961     0.16451
 PX  C  30  -0.04899    -0.05475     0.13202     0.16223     0.09917    -0.07789
 PY  C  30  -0.11043     0.00647    -0.03492     0.08457    -0.20344     0.09178
 PZ  C  30   0.00370    -0.00282    -0.00539    -0.00202    -0.00133     0.00199




    ROOT NO.   13          14          15          16          17          18

           -25.22522   -24.01882   -22.77611   -21.46759   -20.62795   -19.41810
  
  
  S  C   1   0.02829     0.11106     0.00480     0.16534    -0.03758     0.00583
 PX  C   1   0.02196    -0.23680    -0.00020    -0.02535     0.22275     0.19807
 PY  C   1  -0.14793    -0.00362     0.19428    -0.13420    -0.12976     0.17916
 PZ  C   1   0.00157    -0.00702    -0.00016     0.00422     0.00897     0.00902
  
  S  C   2   0.14828    -0.17822    -0.12441    -0.11924     0.12662     0.02218
 PX  C   2   0.04848     0.04790    -0.06384    -0.16118    -0.14127    -0.16986
 PY  C   2  -0.17997     0.00734     0.20507    -0.07620    -0.15971     0.06788
 PZ  C   2   0.00438     0.00100    -0.00630    -0.00420    -0.00041    -0.00790
  
  S  C   3  -0.12621     0.11574     0.01333    -0.08792    -0.07555    -0.14438
 PX  C   3   0.13987     0.15206    -0.14099     0.11990    -0.01287    -0.00073
 PY  C   3  -0.16053     0.07981     0.01658     0.11082     0.14225    -0.06195
 PZ  C   3   0.00288     0.00195    -0.00396    -0.00149    -0.00010    -0.00329
  
  S  C   4  -0.07490     0.09814     0.00805     0.09229    -0.04689    -0.15714
 PX  C   4  -0.07984     0.14584    -0.06946    -0.17631     0.11679    -0.04978
 PY  C   4   0.23646     0.07010    -0.13576    -0.00463    -0.06883     0.02724
 PZ  C   4   0.00262     0.00446    -0.00230    -0.00383    -0.00054    -0.00054
  
  S  C   5   0.13666    -0.16688    -0.11244     0.12883     0.11724     0.01256
 PX  C   5  -0.06123     0.01987     0.13319     0.16552    -0.19566    -0.04114
 PY  C   5   0.17368     0.03361    -0.16652     0.11775    -0.02249    -0.17758
 PZ  C   5  -0.00186     0.00302     0.00430     0.00380    -0.00567     0.00164
  
  S  C   6  -0.02983     0.11483     0.00153    -0.16751    -0.04425     0.00510
 PX  C   6  -0.08905    -0.13332     0.16165     0.10017     0.01717     0.25183
 PY  C   6   0.06952    -0.18682    -0.11220    -0.05812     0.25001     0.05512
 PZ  C   6  -0.00193    -0.01274     0.00571     0.00862     0.00977     0.01968
  
  S  C   7   0.13097     0.09543     0.07769     0.20974    -0.07224     0.15363
 PX  C   7   0.04066    -0.15363     0.17050     0.06226     0.02950     0.15252
 PY  C   7  -0.08581    -0.08702    -0.05989     0.00583     0.21590     0.00540
 PZ  C   7   0.00105    -0.00663     0.00428    -0.00252     0.00083    -0.00147
  
  S  C   8   0.11285     0.09560     0.07563    -0.20410    -0.07566     0.15327
 PX  C   8  -0.13436    -0.12935     0.06710    -0.08576     0.19427     0.07260
 PY  C   8   0.03713    -0.06602     0.16941    -0.04533    -0.11593     0.14120
 PZ  C   8  -0.00601    -0.00868     0.01177    -0.00247     0.00505     0.00370
  
  S  C   9  -0.05181    -0.22651    -0.00612     0.00223     0.01202    -0.01032
 PX  C   9   0.03073    -0.06188    -0.10799     0.19372    -0.17079    -0.15687
 PY  C   9  -0.02847     0.06761     0.22686     0.09842    -0.09105    -0.08213
 PZ  C   9  -0.00163     0.00277     0.01384     0.01377    -0.00799    -0.01740
  
  S  C  10   0.03013    -0.23208    -0.04924    -0.01491     0.00426     0.00695
 PX  C  10   0.00322     0.03560     0.09780    -0.17025    -0.17112    -0.15556
 PY  C  10  -0.01372    -0.07667    -0.20679    -0.07846    -0.09240    -0.09167
 PZ  C  10  -0.00121    -0.00820    -0.00154    -0.01139    -0.00747    -0.01914
  
  S  C  11  -0.15285     0.11411     0.03736    -0.20334     0.06140    -0.15610
 PX  C  11  -0.12491     0.17681    -0.04325     0.07426     0.18555     0.06985
 PY  C  11   0.07431     0.06759    -0.16535     0.05640    -0.11085     0.15577
 PZ  C  11  -0.00830     0.01069     0.00014     0.00248     0.01739    -0.00637
  
  S  H  12  -0.15302     0.07012     0.10867    -0.10839     0.15094    -0.15654
  
  S  C  13  -0.10670     0.10189     0.09060     0.21639     0.06851    -0.14773
 PX  C  13   0.08253     0.15409    -0.15927    -0.08946     0.02703     0.15792
 PY  C  13  -0.09840     0.10381     0.04417    -0.03301     0.21816    -0.00850
 PZ  C  13  -0.00213     0.00577     0.00683     0.00624     0.01178    -0.00764
  
  S  H  14   0.12301     0.04551     0.13617     0.11870    -0.14520     0.12746
  
  S  H  15   0.08179     0.14749    -0.10337     0.17414    -0.03544    -0.19277
  
  S  H  16   0.19310    -0.08081    -0.20038    -0.06565     0.11200    -0.08629
  
  S  H  17   0.18570    -0.07030    -0.19322     0.07568     0.10755    -0.08723
  
  S  H  18   0.04039     0.14306    -0.10790    -0.15765    -0.03373    -0.18700
  
  S  H  19   0.12282     0.05370     0.11152    -0.09889    -0.17121     0.14230
  
  S  H  20  -0.13795     0.07189     0.10576     0.10401     0.16028    -0.12147
  
  S  C  21  -0.17434    -0.16896    -0.11700     0.13258    -0.10059    -0.00697
 PX  C  21  -0.04850     0.00340    -0.14572    -0.16159    -0.19530     0.00797
 PY  C  21   0.17959    -0.04676     0.15513    -0.12284    -0.01950    -0.16650
 PZ  C  21   0.00054     0.00211     0.00724     0.01748     0.01359    -0.00204
  
  S  C  22   0.06223     0.13564     0.00540    -0.16830     0.04076    -0.01253
 PX  C  22  -0.07510     0.14852    -0.16052    -0.10434    -0.01036     0.23730
 PY  C  22   0.08813     0.19027     0.11682     0.06092     0.23586     0.02452
 PZ  C  22   0.00420    -0.02594     0.01619     0.02146    -0.00734    -0.03875
  
  S  C  23  -0.01946     0.12031     0.00867     0.16948     0.03985    -0.00088
 PX  C  23   0.06609     0.25128     0.02834     0.02311     0.22071     0.14203
 PY  C  23  -0.15646     0.02537    -0.19099     0.12883    -0.11780     0.19923
 PZ  C  23   0.00048    -0.01299     0.00471     0.00634    -0.00677    -0.01446
  
  S  C  24  -0.18998    -0.16174    -0.14645    -0.10837    -0.12841    -0.00350
 PX  C  24   0.04214    -0.05902     0.05752     0.16484    -0.12988    -0.12036
 PY  C  24  -0.18783     0.02600    -0.20226     0.09343    -0.13813     0.10226
 PZ  C  24   0.00735     0.00209     0.00991     0.00038     0.01148    -0.00544
  
  S  H  25  -0.20247    -0.05817    -0.19504     0.08039    -0.10734     0.10044
  
  S  H  26  -0.01549     0.16309    -0.10607    -0.16389     0.01066     0.17308
  
  S  H  27  -0.06210     0.17083    -0.08608     0.16690     0.04785     0.18546
  
  S  H  28  -0.21558    -0.04705    -0.20502    -0.05433    -0.09594     0.10021
  
  S  C  29   0.06341     0.09008     0.01818     0.09937     0.06389     0.14847
 PX  C  29  -0.10603    -0.16398     0.07684     0.16967     0.11722    -0.09173
 PY  C  29   0.26396    -0.11344     0.13786    -0.00583    -0.08722     0.03836
 PZ  C  29  -0.00371     0.00620     0.00090     0.00804     0.01101    -0.00061
  
  S  C  30   0.17283     0.08965     0.02869    -0.10198     0.04637     0.13443
 PX  C  30   0.10986    -0.17437     0.13092    -0.10798    -0.01931    -0.01895
 PY  C  30  -0.17985    -0.06734    -0.01879    -0.11788     0.13256    -0.10766
 PZ  C  30   0.00139     0.01134     0.00236     0.01122     0.00952     0.00062




    ROOT NO.   19          20          21          22          23          24

           -18.30589   -17.21167   -17.00996   -16.65894   -15.98693   -15.25848
  
  
  S  C   1   0.14756    -0.01976     0.07625    -0.08166     0.03884     0.07030
 PX  C   1  -0.03828     0.16057     0.05922     0.04927     0.16018     0.11730
 PY  C   1  -0.16194    -0.17756    -0.08498     0.02534     0.18775    -0.02073
 PZ  C   1   0.00523     0.00501    -0.00641    -0.00176     0.01655    -0.01020
  
  S  C   2  -0.15023     0.00292    -0.03337     0.06483     0.00560    -0.00508
 PX  C   2  -0.12832    -0.16771    -0.11208     0.01463    -0.16501    -0.13116
 PY  C   2   0.01890    -0.11652     0.18983    -0.13113    -0.07842     0.28085
 PZ  C   2  -0.00687    -0.00461    -0.02453     0.00468     0.00216    -0.02775
  
  S  C   3   0.05041     0.02390     0.20596    -0.06835    -0.08878     0.04730
 PX  C   3   0.16293    -0.05451     0.05073    -0.06262     0.24852    -0.12315
 PY  C   3   0.07339     0.26640    -0.00325     0.08290    -0.01937    -0.09526
 PZ  C   3  -0.00143    -0.00518    -0.02187    -0.00496     0.01055    -0.00459
  
  S  C   4  -0.05892     0.07671    -0.18696     0.10204    -0.05960    -0.03476
 PX  C   4  -0.09973     0.22074     0.06768     0.02520     0.08366     0.16886
 PY  C   4  -0.11608    -0.14741    -0.14474     0.00500     0.21918     0.07344
 PZ  C   4  -0.00579    -0.00223    -0.02236    -0.00207     0.01524     0.00305
  
  S  C   5   0.16901    -0.02479     0.01739    -0.07349    -0.01501    -0.01155
 PX  C   5  -0.01219    -0.17784    -0.17669     0.05876    -0.09619    -0.18210
 PY  C   5   0.08286    -0.07880     0.14428    -0.08275    -0.15799     0.19158
 PZ  C   5   0.00114    -0.00579    -0.01104    -0.00286     0.01164    -0.00844
  
  S  C   6  -0.15847    -0.00089    -0.08179     0.07493     0.06747    -0.06299
 PX  C   6   0.16017    -0.08833    -0.00328    -0.10971     0.23092    -0.06090
 PY  C   6   0.04076     0.22503     0.03430     0.02460     0.02922    -0.01306
 PZ  C   6   0.01907     0.00035    -0.00310    -0.01293     0.02920    -0.01156
  
  S  C   7   0.10231     0.02040    -0.04426     0.02262     0.08132    -0.01848
 PX  C   7  -0.14258     0.07768    -0.18132     0.11932    -0.17061     0.07975
 PY  C   7  -0.08845     0.00887     0.28505     0.06758    -0.03432    -0.21637
 PZ  C   7  -0.00676    -0.00008    -0.02581    -0.00704     0.00037     0.01349
  
  S  C   8  -0.08669     0.03023     0.06288    -0.02238     0.06763     0.03806
 PX  C   8   0.16734     0.09459    -0.15762    -0.07241    -0.14480     0.07879
 PY  C   8   0.07416    -0.04253     0.34892    -0.04745    -0.11691    -0.17456
 PZ  C   8   0.01262     0.00570    -0.00868    -0.00592    -0.00880    -0.00062
  
  S  C   9   0.12645    -0.09704    -0.18526    -0.10481    -0.09026     0.05951
 PX  C   9  -0.04832    -0.13579     0.04319     0.02931     0.06260    -0.07123
 PY  C   9   0.10432     0.23321    -0.03390     0.04593    -0.10796    -0.02893
 PZ  C   9   0.00392     0.01820    -0.01024     0.00381     0.00196     0.00174
  
  S  C  10  -0.14807    -0.14466     0.15606     0.07078    -0.06840    -0.07256
 PX  C  10  -0.03789     0.12840     0.05982     0.01793    -0.06513     0.08769
 PY  C  10   0.04054    -0.21887    -0.08125    -0.11465     0.09440     0.08929
 PZ  C  10  -0.00343    -0.00171    -0.01815    -0.01999     0.00798     0.02449
  
  S  C  11   0.09636     0.02939     0.01770    -0.05379     0.08858    -0.00087
 PX  C  11   0.17428    -0.05991    -0.13486    -0.07492     0.14098    -0.05835
 PY  C  11   0.06569    -0.06430     0.09208     0.21243     0.10271    -0.09838
 PZ  C  11   0.01067     0.00252    -0.02797    -0.03527     0.02329     0.02032
  
  S  H  12   0.05984     0.05154    -0.12548    -0.22655     0.02178     0.06447
  
  S  C  13  -0.08383     0.06520     0.01226     0.06266     0.09434    -0.02288
 PX  C  13  -0.16750    -0.00099    -0.00496    -0.18457     0.13411     0.15030
 PY  C  13  -0.09316    -0.06784     0.14296     0.16172     0.06758    -0.07263
 PZ  C  13  -0.00932     0.00978     0.00664     0.01541     0.01629    -0.00221
  
  S  H  14   0.05081     0.04827    -0.31715     0.00944    -0.00604     0.18783
  
  S  H  15   0.19853     0.03502     0.06895    -0.08295    -0.19290    -0.00640
  
  S  H  16  -0.13781     0.01671    -0.21404     0.13574    -0.00295    -0.27300
  
  S  H  17   0.14380    -0.00233     0.20195    -0.12347    -0.08693     0.21918
  
  S  H  18  -0.20827     0.07500    -0.03679     0.13172    -0.16819     0.02250
  
  S  H  19  -0.05504    -0.05130     0.36090    -0.01500     0.01230    -0.14348
  
  S  H  20  -0.05011    -0.02696     0.12956     0.23799     0.05725    -0.11523
  
  S  C  21  -0.17781     0.01456     0.03803    -0.05488    -0.00387     0.07039
 PX  C  21   0.04649     0.24303     0.00053    -0.17171     0.13991    -0.07449
 PY  C  21   0.13684     0.03236     0.03567     0.26360     0.17942     0.21427
 PZ  C  21  -0.02575    -0.00913     0.00082    -0.02180     0.00824     0.02759
  
  S  C  22   0.16399    -0.05534    -0.01824     0.10582     0.05557     0.02067
 PX  C  22   0.16402     0.02902    -0.07023     0.02525    -0.23456    -0.19880
 PY  C  22  -0.04896    -0.22844    -0.02478    -0.08762    -0.08989    -0.07206
 PZ  C  22  -0.04834     0.01157     0.01847    -0.02166     0.06384     0.07365
  
  S  C  23  -0.16136     0.04609     0.02390    -0.10856     0.05329    -0.01690
 PX  C  23  -0.11728    -0.19710     0.01550     0.00021    -0.18391     0.18728
 PY  C  23  -0.11790     0.18874     0.01816    -0.00045    -0.14921     0.03973
 PZ  C  23  -0.01727     0.01594     0.00620    -0.01549     0.03049     0.02355
  
  S  C  24   0.15997    -0.03854    -0.03498     0.04115    -0.00934    -0.03750
 PX  C  24  -0.06735     0.25614     0.01518    -0.06757     0.20335    -0.16393
 PY  C  24   0.04765     0.04018     0.03507     0.32953     0.04234     0.22274
 PZ  C  24  -0.01752     0.00521     0.00215    -0.02523     0.01334     0.00795
  
  S  H  25  -0.16292     0.08598    -0.00959    -0.30059    -0.07431    -0.16329
  
  S  H  26   0.22083    -0.00197    -0.06972     0.07858    -0.17967    -0.17736
  
  S  H  27  -0.20988     0.05308     0.03111    -0.05614    -0.17699     0.11256
  
  S  H  28   0.14032    -0.10439     0.00736     0.30227    -0.05794     0.22008
  
  S  C  29   0.06247    -0.02940     0.01658     0.21469    -0.07569    -0.01577
 PX  C  29  -0.16036    -0.21319     0.00548     0.03715    -0.11641     0.10910
 PY  C  29  -0.08432     0.18767    -0.00213    -0.01714    -0.20175     0.05580
 PZ  C  29  -0.00947     0.00287    -0.00900    -0.02053     0.01848     0.02459
  
  S  C  30  -0.05290     0.08178    -0.04222    -0.20032    -0.09809    -0.00834
 PX  C  30   0.16591    -0.01275    -0.01889     0.04522    -0.21657    -0.14490
 PY  C  30   0.01098    -0.24821    -0.02850    -0.17560     0.00991    -0.05781
 PZ  C  30  -0.02045     0.01566     0.00167    -0.00731     0.02511     0.02017




    ROOT NO.   25          26          27          28          29          30

           -14.92664   -14.76948   -14.68893   -14.49086   -13.77901   -13.51109
  
  
  S  C   1   0.00560     0.03696    -0.02604    -0.01185    -0.04935     0.02285
 PX  C   1   0.27306    -0.06627     0.05753     0.12703    -0.10032     0.08369
 PY  C   1   0.08550     0.18151     0.10873    -0.11741    -0.08909     0.04540
 PZ  C   1  -0.07199     0.03618     0.03278     0.10958    -0.08624    -0.21712
  
  S  C   2   0.07824     0.04902     0.05758    -0.01110     0.02616    -0.01388
 PX  C   2  -0.22144     0.08440    -0.02682    -0.13864     0.13649    -0.08023
 PY  C   2   0.16686     0.16614    -0.02746     0.04058     0.05794    -0.07564
 PZ  C   2  -0.10198     0.05229     0.04892     0.12925    -0.07637    -0.23373
  
  S  C   3  -0.01598    -0.01690    -0.00507     0.00897    -0.02969    -0.00232
 PX  C   3  -0.09637    -0.03697     0.03998    -0.06891    -0.22901     0.14063
 PY  C   3  -0.02157    -0.21384    -0.00199     0.08865    -0.02690     0.03498
 PZ  C   3  -0.12582     0.10044     0.08980     0.22788    -0.10136    -0.27383
  
  S  C   4   0.03049    -0.06110    -0.02377     0.03591    -0.01301     0.03008
 PX  C   4   0.08933    -0.01722    -0.06474     0.06729    -0.17704     0.00536
 PY  C   4   0.07200     0.16297    -0.00096    -0.06956    -0.18674     0.06162
 PZ  C   4  -0.11563     0.10696     0.08039     0.22602    -0.10879    -0.27304
  
  S  C   5  -0.10227     0.04218    -0.03492    -0.04673     0.02873    -0.01832
 PX  C   5  -0.03011    -0.00833     0.07561    -0.04272     0.16032     0.01351
 PY  C   5   0.20809     0.23418     0.06974    -0.04269     0.07797    -0.02876
 PZ  C   5  -0.08601     0.05985     0.04643     0.14022    -0.09250    -0.24057
  
  S  C   6   0.00577    -0.02946     0.03100     0.00355    -0.04950     0.01607
 PX  C   6  -0.24579     0.04006    -0.08138    -0.13121    -0.14241     0.03214
 PY  C   6  -0.08132    -0.22609    -0.10056     0.11815    -0.03774     0.00796
 PZ  C   6  -0.09946     0.04006     0.02076     0.10389    -0.10228    -0.22570
  
  S  C   7   0.05705    -0.03533     0.00515     0.03807     0.01775     0.01133
 PX  C   7   0.13286     0.02024    -0.02653     0.06424     0.24660    -0.12339
 PY  C   7  -0.00340     0.07151     0.23841    -0.12807     0.07472    -0.05054
 PZ  C   7  -0.10159     0.09363     0.09607     0.21600    -0.04850    -0.13595
  
  S  C   8  -0.04122    -0.03024    -0.03839     0.01152    -0.00569    -0.02042
 PX  C   8  -0.13893     0.12744    -0.15836    -0.09166     0.19214    -0.04264
 PY  C   8  -0.07661    -0.20907     0.09936     0.03761     0.18086    -0.03703
 PZ  C   8  -0.10346     0.09671     0.07628     0.19748    -0.03784    -0.13036
  
  S  C   9   0.00276    -0.01031     0.03289    -0.00696     0.03187     0.01210
 PX  C   9   0.16010    -0.16758     0.18416     0.07913    -0.17401     0.06205
 PY  C   9   0.05294    -0.08958     0.06008    -0.00701    -0.12487     0.04184
 PZ  C   9  -0.10104     0.11689     0.12554     0.25213    -0.02518     0.02401
  
  S  C  10  -0.00596     0.03991    -0.03994    -0.00686     0.00879    -0.00912
 PX  C  10  -0.11902    -0.02161    -0.26660     0.04701    -0.23880     0.09211
 PY  C  10  -0.01998    -0.05353    -0.09377     0.04709    -0.07831     0.05651
 PZ  C  10  -0.12256     0.11162     0.12959     0.25791    -0.02523     0.02008
  
  S  C  11  -0.05101     0.01311    -0.03366    -0.02603    -0.01544     0.02605
 PX  C  11   0.12873    -0.01799     0.22302    -0.06597     0.23343    -0.09194
 PY  C  11   0.06006     0.04200    -0.30884     0.18170     0.16237    -0.01714
 PZ  C  11  -0.08343     0.08191     0.16438     0.17945     0.06233     0.13712
  
  S  H  12  -0.02500    -0.03540     0.32365    -0.16172    -0.04305     0.00082
  
  S  C  13   0.06001     0.03619     0.04422    -0.01559    -0.03132    -0.02469
 PX  C  13  -0.08235    -0.11616     0.05679    -0.04315     0.21014    -0.15002
 PY  C  13  -0.06885     0.27526    -0.24314    -0.03995     0.07038    -0.00945
 PZ  C  13  -0.08719     0.13164     0.08339     0.19242     0.05063     0.15684
  
  S  H  14   0.08385    -0.06490    -0.17383     0.14395     0.06642    -0.01884
  
  S  H  15  -0.19837    -0.08306    -0.12425     0.02007     0.09977    -0.07311
  
  S  H  16  -0.19059    -0.06792     0.03617    -0.08871     0.02792     0.00561
  
  S  H  17   0.13284     0.20283     0.01018    -0.04134     0.01598    -0.03303
  
  S  H  18   0.23267    -0.06109     0.08630     0.11557     0.12245    -0.00074
  
  S  H  19  -0.01493    -0.21904     0.12398     0.07201     0.05631    -0.02186
  
  S  H  20  -0.00864     0.27907    -0.19554    -0.00694    -0.03367     0.04994
  
  S  C  21  -0.06809    -0.04309    -0.03924     0.00442    -0.02036     0.01327
 PX  C  21  -0.04090     0.07885    -0.09292    -0.00952     0.16162     0.01994
 PY  C  21  -0.15591     0.01179     0.13076    -0.15393     0.09805    -0.02493
 PZ  C  21  -0.06925     0.03357     0.05780     0.12393     0.09627     0.22572
  
  S  C  22   0.02016    -0.02674     0.03514     0.01718     0.05385    -0.01083
 PX  C  22   0.14943     0.14923     0.10287     0.01838    -0.13952     0.06438
 PY  C  22   0.11555    -0.13144    -0.10065     0.18289    -0.04614     0.01649
 PZ  C  22  -0.10929     0.00774     0.02108     0.07921     0.13894     0.20690
  
  S  C  23  -0.00768     0.01411    -0.05061    -0.00075     0.04574    -0.02719
 PX  C  23  -0.17354    -0.14400    -0.04776     0.01118    -0.07049     0.09730
 PY  C  23  -0.12603     0.15520     0.09331    -0.17774    -0.08759     0.04484
 PZ  C  23  -0.06820     0.04757     0.04107     0.08513     0.11069     0.21614
  
  S  C  24   0.06268    -0.03952     0.01369     0.06126    -0.01458     0.02421
 PX  C  24   0.12840     0.16910     0.03344    -0.04302     0.09821    -0.10958
 PY  C  24  -0.10245    -0.07461     0.12119    -0.05473     0.05348    -0.04461
 PZ  C  24  -0.06826     0.07173     0.05528     0.11827     0.10145     0.23922
  
  S  H  25   0.07088     0.00271    -0.15881     0.11436    -0.02066     0.03387
  
  S  H  26   0.16290     0.12079     0.10747     0.00456    -0.13196     0.01045
  
  S  H  27  -0.18525     0.04954     0.01762    -0.12882    -0.09204     0.07696
  
  S  H  28  -0.10206    -0.14935     0.07090     0.00272    -0.02107     0.01788
  
  S  C  29   0.02158     0.06819     0.00108     0.00121     0.00893    -0.00307
 PX  C  29  -0.00330    -0.11222     0.09426    -0.00782    -0.17825    -0.01042
 PY  C  29  -0.10245     0.07452     0.12703    -0.12389    -0.19282     0.07236
 PZ  C  29  -0.09623     0.08969     0.13622     0.19866     0.11675     0.27363
  
  S  C  30  -0.03774     0.00168     0.04781    -0.05357     0.00424    -0.00194
 PX  C  30   0.02576     0.12876    -0.06677     0.03865    -0.18912     0.17788
 PY  C  30   0.05825    -0.09719    -0.10123     0.11155    -0.00455     0.02937
 PZ  C  30  -0.10250     0.11630     0.11790     0.19755     0.12301     0.27881




    ROOT NO.   31          32          33          34          35          36

           -13.06089   -12.80234   -12.15898   -11.83072   -11.73558   -11.35067
  
  
  S  C   1  -0.01002    -0.01305     0.01821     0.01818    -0.00065     0.00796
 PX  C   1  -0.02127     0.22047    -0.07159     0.02692    -0.08152     0.12396
 PY  C   1  -0.25000    -0.02311     0.23488     0.05347     0.04618     0.05843
 PZ  C   1  -0.03350     0.05192     0.03682    -0.28674     0.06129     0.12204
  
  S  C   2  -0.03310     0.00695    -0.02855    -0.02250    -0.01591    -0.03037
 PX  C   2   0.03127    -0.21771     0.02121    -0.02960     0.06385    -0.15791
 PY  C   2   0.14391    -0.02169    -0.23163    -0.09492    -0.04791    -0.11343
 PZ  C   2  -0.04410     0.04773     0.04869    -0.18506     0.05745     0.08408
  
  S  C   3   0.01995    -0.03142     0.00080    -0.00325    -0.00471     0.00483
 PX  C   3  -0.09081     0.14388    -0.08377     0.04257    -0.16002     0.16825
 PY  C   3  -0.09360     0.03393     0.30232     0.09619     0.12897     0.11668
 PZ  C   3  -0.04263     0.07757     0.01065    -0.01133     0.01125     0.01532
  
  S  C   4  -0.00404     0.02335     0.01880    -0.00555     0.01069    -0.01353
 PX  C   4   0.02751    -0.21719     0.18117    -0.03925     0.17816    -0.18030
 PY  C   4   0.03928    -0.03982    -0.24269    -0.10096    -0.10979    -0.14434
 PZ  C   4  -0.04446     0.07501    -0.01124    -0.05970    -0.03444     0.00451
  
  S  C   5  -0.00925    -0.00611    -0.02892     0.00252    -0.03959     0.03325
 PX  C   5  -0.04653     0.23081    -0.14450     0.04186    -0.15234     0.17411
 PY  C   5  -0.21616     0.02285     0.20398     0.04915     0.03139     0.09057
 PZ  C   5  -0.03592     0.06088     0.00949    -0.24033     0.01600     0.08313
  
  S  C   6  -0.01066     0.00434     0.00608    -0.01395     0.00786    -0.01091
 PX  C   6   0.00757    -0.23583     0.09945     0.01244     0.08427    -0.13139
 PY  C   6   0.25864    -0.00653    -0.22935    -0.05133    -0.03033    -0.10040
 PZ  C   6  -0.02179     0.02486     0.02856    -0.31701     0.05731     0.09963
  
  S  C   7  -0.04250     0.05946    -0.01678    -0.00886    -0.05193    -0.01686
 PX  C   7   0.04424    -0.11733     0.07673    -0.05225     0.12888    -0.18039
 PY  C   7  -0.16492    -0.07411    -0.12490    -0.08247    -0.14387    -0.16816
 PZ  C   7  -0.00881     0.03312     0.00062     0.18758     0.01089    -0.06112
  
  S  C   8   0.03998    -0.06400    -0.02783    -0.00422    -0.04399    -0.01090
 PX  C   8  -0.11943     0.02421    -0.00593     0.06073    -0.18315     0.19494
 PY  C   8   0.02275     0.09599     0.11780     0.08156     0.07977     0.14109
 PZ  C   8  -0.03706     0.04303    -0.01421     0.12526    -0.08199    -0.04808
  
  S  C   9  -0.00210     0.06954     0.00259     0.00830    -0.00080     0.01315
 PX  C   9   0.09867     0.02337     0.03518    -0.06936     0.20797    -0.18091
 PY  C   9  -0.24460    -0.08421     0.01356    -0.12332    -0.23359    -0.18408
 PZ  C   9  -0.01621    -0.01717    -0.02070     0.27465    -0.09189    -0.14445
  
  S  C  10   0.05175    -0.02624    -0.01322    -0.02366    -0.00294     0.00590
 PX  C  10  -0.06331    -0.05678     0.06796     0.03048    -0.20878     0.15738
 PY  C  10   0.22569     0.13688     0.05460     0.08354     0.23452     0.19812
 PZ  C  10   0.01604    -0.00813    -0.01669     0.33876    -0.01815    -0.10673
  
  S  C  11  -0.02870     0.06869     0.01986     0.00372    -0.05033    -0.00558
 PX  C  11   0.02853     0.10443    -0.03672    -0.06174     0.16716    -0.15964
 PY  C  11  -0.07397     0.04919     0.11751    -0.02756    -0.14487    -0.15255
 PZ  C  11   0.03066    -0.04107    -0.02397     0.16489     0.04252    -0.05620
  
  S  H  12   0.06142     0.02803    -0.11356     0.01999     0.20406     0.06818
  
  S  C  13   0.02629    -0.07992     0.00018    -0.01805    -0.03859    -0.02793
 PX  C  13   0.08201    -0.13144     0.05413     0.07371    -0.16678     0.17976
 PY  C  13   0.13639     0.09519    -0.06579     0.07944     0.17473     0.17205
 PZ  C  13   0.03343    -0.05222    -0.01041     0.12078    -0.04103    -0.03467
  
  S  H  14   0.13327     0.02954     0.14612     0.05100     0.18868     0.04752
  
  S  H  15   0.20900    -0.10733    -0.14659    -0.05564     0.00950    -0.11707
  
  S  H  16  -0.12239    -0.07602     0.21006     0.05225     0.07840     0.01739
  
  S  H  17  -0.16434    -0.09388     0.24737     0.03849     0.09488     0.01133
  
  S  H  18  -0.00273     0.23440    -0.10771     0.01380    -0.08987     0.12118
  
  S  H  19   0.09167     0.03352     0.10166     0.04325     0.15646     0.02672
  
  S  H  20   0.09636     0.09324    -0.08911     0.04655     0.23363     0.07883
  
  S  C  21  -0.00818     0.00619     0.02875     0.00695    -0.04572     0.01325
 PX  C  21  -0.19290     0.17343    -0.10950    -0.01742     0.16835    -0.13455
 PY  C  21   0.12487     0.17869     0.13230    -0.02631    -0.07180    -0.10174
 PZ  C  21  -0.01793    -0.05975     0.01320    -0.21238     0.02848     0.07906
  
  S  C  22  -0.01690    -0.03248    -0.01055    -0.01804     0.00280     0.00225
 PX  C  22   0.20866    -0.12014     0.07588    -0.07082    -0.06811     0.10944
 PY  C  22  -0.17749    -0.22932    -0.14864     0.01361     0.06317     0.12107
 PZ  C  22  -0.06437     0.02287     0.02312    -0.29187     0.04273     0.04849
  
  S  C  23  -0.00814    -0.00097    -0.00969     0.01767     0.00024     0.01708
 PX  C  23  -0.18057     0.15682    -0.03473    -0.02168     0.07065    -0.12038
 PY  C  23   0.21265     0.22642     0.16438    -0.02668    -0.07186    -0.09291
 PZ  C  23   0.00855    -0.01414     0.05919    -0.31158    -0.00388     0.08878
  
  S  C  24  -0.02000    -0.02676     0.02357    -0.03372    -0.02775    -0.03790
 PX  C  24   0.17343    -0.16097     0.00602     0.03195    -0.05062     0.15645
 PY  C  24  -0.10992    -0.18553    -0.17146     0.04070     0.08680     0.16088
 PZ  C  24   0.03757    -0.03369     0.06549    -0.24201    -0.03015     0.07705
  
  S  H  25  -0.20355    -0.06250    -0.16480     0.02376     0.13920     0.03094
  
  S  H  26   0.20883    -0.13207     0.06636    -0.01368    -0.07557     0.10108
  
  S  H  27   0.06827     0.27766     0.11361    -0.02399    -0.01655    -0.14940
  
  S  H  28  -0.18781    -0.08365    -0.15189     0.02053     0.10812     0.04270
  
  S  C  29   0.02611    -0.02389    -0.00151    -0.01308     0.00649    -0.00979
 PX  C  29   0.19388    -0.14437     0.12545     0.02102    -0.18699     0.13634
 PY  C  29  -0.03140    -0.05742    -0.19269     0.04999     0.20203     0.17308
 PZ  C  29   0.03181    -0.09430     0.01007    -0.04456     0.00869     0.03287
  
  S  C  30  -0.01449     0.03917    -0.00667     0.00447    -0.00486     0.00494
 PX  C  30  -0.07042     0.19180    -0.05992    -0.05261     0.20115    -0.15188
 PY  C  30   0.07472     0.13085     0.22892    -0.05584    -0.20112    -0.17296
 PZ  C  30   0.05084    -0.10196     0.02454    -0.06442    -0.04123     0.05570




    ROOT NO.   37          38          39          40          41          42

           -10.59105    -9.95085    -9.64079    -8.30183    -8.09882    -6.74052
  
  
  S  C   1   0.00131     0.01548     0.00558    -0.00282    -0.01375    -0.00670
 PX  C   1  -0.00411    -0.00189     0.00252    -0.00518    -0.00526    -0.00792
 PY  C   1   0.00912    -0.00003     0.00579    -0.00172    -0.00110     0.00031
 PZ  C   1  -0.10177    -0.32239    -0.21463     0.16571     0.30215     0.19881
  
  S  C   2  -0.00438    -0.00643    -0.00334    -0.00088     0.00447     0.00053
 PX  C   2   0.01466     0.01237     0.01807    -0.01739    -0.00571    -0.01080
 PY  C   2  -0.02495    -0.00758    -0.02362     0.01472     0.00646     0.00866
 PZ  C   2  -0.22561    -0.07997    -0.34110     0.34991     0.07510     0.24036
  
  S  C   3   0.00318    -0.00184     0.00312    -0.00063     0.00250     0.00228
 PX  C   3  -0.01227    -0.00752    -0.00128    -0.00061     0.00534    -0.00004
 PY  C   3   0.02640     0.00928     0.01367    -0.00101    -0.00849    -0.00112
 PZ  C   3  -0.24950     0.27908    -0.20089     0.12523    -0.31364    -0.14062
  
  S  C   4  -0.00664    -0.01071    -0.00609    -0.00350     0.00787    -0.00509
 PX  C   4   0.01227     0.01123     0.00166     0.00178    -0.00462     0.00058
 PY  C   4  -0.03177    -0.01093    -0.01874     0.00113     0.01138    -0.00057
 PZ  C   4   0.21780     0.25279     0.24857     0.03619    -0.33764     0.13865
  
  S  C   5   0.00415    -0.00332     0.01283    -0.01444    -0.00669    -0.01085
 PX  C   5  -0.01376    -0.01301    -0.00550     0.00013     0.00716    -0.00006
 PY  C   5   0.00751    -0.00916     0.00509    -0.00412     0.00192    -0.00181
 PZ  C   5   0.21651    -0.14399     0.30171    -0.33308    -0.09380    -0.23202
  
  S  C   6   0.00499    -0.01087     0.00402    -0.00753     0.00804    -0.00382
 PX  C   6  -0.00377     0.04334    -0.00986     0.02601    -0.01761     0.01889
 PY  C   6  -0.01201     0.01862    -0.01086     0.01384    -0.00712     0.00822
 PZ  C   6   0.10596    -0.35317     0.12478    -0.26965     0.18776    -0.18939
  
  S  C   7  -0.00980    -0.00619    -0.00314    -0.00303     0.00112     0.00290
 PX  C   7   0.01995    -0.00697     0.00773    -0.00020     0.00433     0.01230
 PY  C   7  -0.02930    -0.00373    -0.00903    -0.01272     0.00370    -0.00472
 PZ  C   7  -0.34551     0.20548    -0.16163    -0.20242    -0.03851    -0.36981
  
  S  C   8  -0.00250     0.00265     0.00217     0.00438     0.00016     0.00989
 PX  C   8  -0.03621    -0.02783    -0.00664    -0.01758     0.00221    -0.01955
 PY  C   8   0.00836    -0.00547    -0.00238    -0.00810     0.00361    -0.01737
 PZ  C   8   0.34883     0.20668     0.22053     0.20048     0.05421     0.37723
  
  S  C   9   0.01734    -0.00504    -0.00691     0.00362     0.01174    -0.00664
 PX  C   9   0.01561     0.01494    -0.00485     0.00130    -0.01741     0.00235
 PY  C   9  -0.05064    -0.01848    -0.00977    -0.01360    -0.04196     0.00031
 PZ  C   9   0.28884     0.01024    -0.00608     0.13852     0.41978     0.00099
  
  S  C  10   0.00654     0.00214     0.00517     0.01613    -0.01920     0.00477
 PX  C  10  -0.01830    -0.00959     0.00699     0.00912    -0.01392     0.00385
 PY  C  10   0.04823     0.01750     0.00622     0.02303    -0.00949     0.00184
 PZ  C  10  -0.24109    -0.03170     0.02334    -0.30609     0.30947     0.00087
  
  S  C  11  -0.00613    -0.01285    -0.00144    -0.00108    -0.00439    -0.00083
 PX  C  11   0.05101     0.02510    -0.02530     0.02450    -0.00078    -0.03241
 PY  C  11  -0.04479    -0.04092     0.01259    -0.01781    -0.00908     0.02015
 PZ  C  11  -0.28364    -0.25794     0.19976    -0.21025    -0.05163     0.37637
  
  S  H  12   0.04038     0.02342    -0.00720     0.00941     0.00368    -0.00136
  
  S  C  13  -0.00478     0.00318    -0.00219     0.00277     0.00013    -0.00782
 PX  C  13   0.00828    -0.00247    -0.00192     0.00478     0.01502    -0.00823
 PY  C  13  -0.01320     0.01839     0.02958    -0.01186     0.00790     0.02687
 PZ  C  13   0.34023    -0.16356    -0.24535     0.21503     0.06044    -0.37157
  
  S  H  14   0.02685     0.00658     0.00632     0.00461    -0.00083    -0.00112
  
  S  H  15  -0.00683     0.00347    -0.00863     0.00799     0.00411     0.00740
  
  S  H  16   0.01691     0.00712     0.01083    -0.00259    -0.00383     0.00069
  
  S  H  17   0.00727     0.00400    -0.00111     0.00733    -0.00103     0.00656
  
  S  H  18  -0.00654    -0.01223    -0.00353     0.00138     0.00224     0.00144
  
  S  H  19   0.02343     0.01184     0.00156     0.00242     0.00104    -0.00556
  
  S  H  20   0.00529     0.01169     0.01319    -0.00191     0.00332     0.01001
  
  S  C  21  -0.01366    -0.01087     0.01892     0.01746    -0.00193    -0.00884
 PX  C  21   0.01203    -0.02013    -0.00480     0.00863    -0.01667    -0.00504
 PY  C  21  -0.01243    -0.01926     0.01683     0.01961    -0.00697    -0.00980
 PZ  C  21  -0.21088     0.07684     0.37100     0.34073     0.08117    -0.22088
  
  S  C  22  -0.00308     0.01584     0.00612     0.00459     0.01208    -0.00749
 PX  C  22  -0.04586     0.08477     0.06689     0.03752     0.07106    -0.03889
 PY  C  22   0.00349     0.03139     0.00095    -0.00219     0.01762    -0.00474
 PZ  C  22  -0.13111     0.29763     0.23106     0.16034     0.28888    -0.18445
  
  S  C  23   0.00136    -0.00380    -0.00254    -0.00493    -0.00172     0.00543
 PX  C  23   0.02178    -0.01428    -0.03053    -0.01811    -0.01358     0.01167
 PY  C  23  -0.01467    -0.01275     0.01706     0.01437     0.00062    -0.00786
 PZ  C  23   0.03760     0.36996    -0.14188    -0.28666     0.19463     0.18681
  
  S  C  24  -0.00055     0.00548    -0.00731    -0.00512    -0.00137     0.00031
 PX  C  24  -0.01365     0.02633     0.01824     0.00195     0.01685    -0.00063
 PY  C  24   0.02589     0.02769    -0.02653    -0.02364     0.00225     0.01317
 PZ  C  24   0.15394     0.18313    -0.33061    -0.33943    -0.07403     0.21675
  
  S  H  25   0.01982     0.00153    -0.02190    -0.01728    -0.00722     0.01151
  
  S  H  26  -0.01809     0.02791     0.01880     0.00316     0.01405     0.00015
  
  S  H  27   0.00027    -0.02837    -0.00228     0.00492    -0.01305    -0.00095
  
  S  H  28   0.02160     0.00244    -0.01740    -0.00581    -0.00524     0.00205
  
  S  C  29  -0.01172     0.00963     0.00630    -0.00628     0.00706     0.00270
 PX  C  29  -0.01446     0.01456     0.01200     0.00044     0.01601     0.00064
 PY  C  29   0.02526     0.02411    -0.00366     0.00061     0.00063     0.00442
 PZ  C  29  -0.18575    -0.29732     0.21508     0.12017    -0.32931     0.14939
  
  S  C  30   0.00423     0.00248     0.00168     0.00542     0.00703    -0.00479
 PX  C  30   0.01609    -0.01220    -0.01366     0.00467    -0.02293    -0.00625
 PY  C  30  -0.01840    -0.03380     0.00190     0.00801    -0.01147    -0.00772
 PZ  C  30   0.20887    -0.21304    -0.27020     0.05257    -0.33130    -0.14573




    ROOT NO.   43          44          45          46          47          48

            -0.98619     0.26296     0.33373     1.23836     1.44790     1.82448
  
  
  S  C   1  -0.01121     0.01603     0.00712     0.01881    -0.01093     0.01539
 PX  C   1  -0.00260     0.00983    -0.00268     0.00470    -0.01140     0.00262
 PY  C   1  -0.00064    -0.00402     0.00306     0.00079     0.00924     0.00334
 PZ  C   1   0.20677    -0.32470    -0.10371    -0.23193     0.31805    -0.08507
  
  S  C   2   0.00216    -0.00032    -0.00126    -0.00910    -0.00336    -0.01435
 PX  C   2   0.00791    -0.00158    -0.01067    -0.01340    -0.00168    -0.00927
 PY  C   2  -0.00865     0.00802     0.01105     0.01064    -0.00712     0.00266
 PZ  C   2  -0.24237     0.14036     0.31119     0.36650    -0.08440     0.20365
  
  S  C   3   0.00163    -0.00911     0.00290     0.01043     0.01625     0.01948
 PX  C   3   0.00437    -0.00149    -0.00281     0.00659     0.00078     0.00476
 PY  C   3  -0.00287    -0.00352     0.00073    -0.00452     0.00619     0.00034
 PZ  C   3  -0.13962     0.28686    -0.18559    -0.22138    -0.27634    -0.23907
  
  S  C   4   0.01092     0.01613    -0.01431    -0.00218    -0.02961    -0.02348
 PX  C   4  -0.00197     0.00682     0.00781     0.01199     0.00247     0.00322
 PY  C   4   0.00647     0.00857     0.00107     0.01293    -0.00407     0.00195
 PZ  C   4  -0.14971    -0.33110     0.09915    -0.27182     0.25708    -0.20958
  
  S  C   5  -0.01806     0.00350     0.02357     0.02294     0.02472     0.02924
 PX  C   5   0.00428    -0.00738    -0.00817    -0.01380     0.00132    -0.00369
 PY  C   5   0.00196     0.00012    -0.00322    -0.00153    -0.00260    -0.00001
 PZ  C   5  -0.23352     0.13822     0.29594     0.31960     0.14400     0.20072
  
  S  C   6   0.01654     0.00002    -0.02211    -0.01945    -0.02156    -0.02265
 PX  C   6  -0.01145    -0.01507     0.02021     0.00624     0.02943     0.00372
 PY  C   6  -0.00444     0.00019     0.00584     0.00516    -0.00070    -0.00005
 PZ  C   6   0.19298     0.14400    -0.28630    -0.12997    -0.35298    -0.10172
  
  S  C   7  -0.00469    -0.00306     0.01197    -0.01164    -0.00738    -0.02269
 PX  C   7  -0.01075    -0.00364     0.01401    -0.00562    -0.00109    -0.01083
 PY  C   7   0.00416    -0.00658     0.00982    -0.00186     0.00413    -0.00511
 PZ  C   7   0.38119    -0.08205    -0.18369     0.16933     0.19168     0.33516
  
  S  C   8  -0.00329    -0.01164    -0.00449    -0.00059     0.00675     0.04530
 PX  C   8  -0.02353     0.00490    -0.00129    -0.01680     0.00325     0.00330
 PY  C   8  -0.00930     0.00857     0.00067    -0.00688    -0.00246    -0.01133
 PZ  C   8   0.37707    -0.08435    -0.18524     0.22368    -0.21446     0.32559
  
  S  C   9   0.00551     0.01113     0.02002     0.00508    -0.00005    -0.06416
 PX  C   9   0.00740    -0.01743     0.00811     0.00328     0.00081     0.00200
 PY  C   9   0.00073    -0.02430    -0.01390     0.00207    -0.00664     0.02904
 PZ  C   9  -0.00907     0.44800     0.05643    -0.00588     0.03170    -0.29826
  
  S  C  10   0.00266     0.01311    -0.04006     0.00986    -0.00630     0.04927
 PX  C  10  -0.00518     0.01129    -0.01786     0.00278    -0.00481    -0.00205
 PY  C  10   0.00230     0.00752    -0.01514    -0.00107    -0.00286     0.01869
 PZ  C  10  -0.00934    -0.24548     0.36107     0.03097     0.02961    -0.25035
  
  S  C  11   0.00052    -0.00000     0.01699    -0.01190     0.01171    -0.01780
 PX  C  11   0.03543     0.01456     0.00814     0.01107     0.02255    -0.00338
 PY  C  11  -0.01631    -0.00133    -0.00453    -0.01806    -0.00734     0.02142
 PZ  C  11  -0.36119    -0.08081    -0.18716    -0.19472    -0.25892     0.29632
  
  S  H  12  -0.00134     0.00256    -0.00633    -0.00299    -0.00919     0.01789
  
  S  C  13  -0.00828    -0.01074    -0.00908    -0.00200     0.00469     0.03271
 PX  C  13  -0.01029     0.00128    -0.00253    -0.00500     0.00003    -0.00119
 PY  C  13   0.02091     0.01127     0.01410     0.01455    -0.00864    -0.03519
 PZ  C  13  -0.35627    -0.09641    -0.18605    -0.23246     0.13653     0.36081
  
  S  H  14   0.00255     0.00178    -0.00428     0.00501     0.00724     0.01360
  
  S  H  15   0.00363    -0.01069    -0.00009    -0.00919     0.01055    -0.00739
  
  S  H  16  -0.00274    -0.00234     0.00431     0.00513     0.00473     0.00870
  
  S  H  17   0.00552    -0.00602    -0.01096    -0.01773    -0.00897    -0.01808
  
  S  H  18  -0.00884    -0.00346     0.01386     0.01049     0.01847     0.01444
  
  S  H  19  -0.00015     0.00589     0.00373    -0.00263    -0.00054    -0.02685
  
  S  H  20   0.00296     0.00645     0.00529    -0.00359    -0.00090    -0.01171
  
  S  C  21   0.01205     0.01547     0.02936    -0.04802     0.01113     0.03648
 PX  C  21   0.02108     0.01201     0.01847    -0.01047     0.00799     0.00665
 PY  C  21   0.01398     0.01098     0.01542    -0.01498     0.00957     0.00951
 PZ  C  21   0.21708     0.14108     0.34173    -0.34096     0.06210     0.22164
  
  S  C  22  -0.00979    -0.02282    -0.01239     0.02943    -0.03328    -0.02314
 PX  C  22  -0.03831    -0.05774    -0.02258     0.03723    -0.05526    -0.02583
 PY  C  22  -0.00793    -0.01198     0.00183    -0.00343    -0.01534     0.00487
 PZ  C  22  -0.19418    -0.31262    -0.13057     0.22466    -0.30211    -0.15214
  
  S  C  23   0.00160     0.00872    -0.00256     0.00120     0.01766    -0.00720
 PX  C  23  -0.00042     0.00994    -0.00386    -0.00716     0.01424     0.01116
 PY  C  23  -0.00133    -0.00680    -0.00026     0.00605    -0.01057    -0.00638
 PZ  C  23  -0.18687     0.13649    -0.32095     0.11671     0.38027    -0.01959
  
  S  C  24  -0.00004    -0.00772     0.00810    -0.01149    -0.02315     0.02035
 PX  C  24   0.00085    -0.00092     0.00260     0.00176    -0.00633    -0.00603
 PY  C  24   0.01306     0.01039     0.01881    -0.01505    -0.00874     0.00239
 PZ  C  24   0.21838     0.12862     0.34372    -0.29905    -0.19832     0.14846
  
  S  H  25  -0.00478    -0.00402    -0.01584     0.02477    -0.00024    -0.01983
  
  S  H  26   0.00211     0.01672     0.00455    -0.02027     0.02988     0.01739
  
  S  H  27   0.00193     0.00064     0.00145    -0.00324    -0.00049     0.00717
  
  S  H  28  -0.00026     0.00522    -0.00672     0.00605     0.02053    -0.00853
  
  S  C  29  -0.00219    -0.01237    -0.01032     0.02883    -0.01566    -0.01627
 PX  C  29  -0.01723    -0.01039    -0.01396     0.01331    -0.00889    -0.01468
 PY  C  29   0.00319     0.00250     0.00239     0.00098     0.00001    -0.00554
 PZ  C  29   0.15407     0.29735    -0.18717     0.19951     0.31536    -0.19075
  
  S  C  30   0.00199     0.00963     0.00097    -0.00195     0.00880    -0.01394
 PX  C  30   0.00499    -0.01246     0.00213     0.00532     0.00107     0.00313
 PY  C  30  -0.00442    -0.00989    -0.00618     0.01238    -0.00172    -0.00850
 PZ  C  30   0.14551    -0.31912     0.08703     0.27683    -0.20534    -0.23860




    ROOT NO.   49          50          51          52          53          54

             2.36087     2.53592     2.88678     3.16551     3.33262     3.38414
  
  
  S  C   1  -0.04045    -0.09736     0.16669    -0.07814     0.20851    -0.01191
 PX  C   1  -0.00598    -0.03349     0.03051    -0.03390     0.02411    -0.05673
 PY  C   1  -0.01541    -0.00689     0.02622     0.01291     0.01779     0.05034
 PZ  C   1  -0.25301     0.17570     0.05580     0.22783     0.10140     0.00735
  
  S  C   2   0.07255     0.14290    -0.22185     0.11469    -0.21967     0.09187
 PX  C   2   0.01018     0.02665    -0.01374     0.01774     0.02292     0.03414
 PY  C   2   0.03442     0.04395    -0.05989     0.01652    -0.03147     0.02786
 PZ  C   2   0.16505    -0.11077    -0.05278    -0.23857    -0.09912    -0.02347
  
  S  C   3  -0.11994    -0.21516     0.28831    -0.12425     0.17830    -0.10454
 PX  C   3  -0.01064     0.00058    -0.05280     0.01076    -0.05635    -0.10418
 PY  C   3  -0.01835    -0.03157     0.03102     0.01909    -0.04576     0.09005
 PZ  C   3  -0.00961     0.00364     0.05578     0.29135     0.13594     0.04080
  
  S  C   4   0.11750     0.21815    -0.28627     0.04321    -0.06011    -0.18904
 PX  C   4   0.00729     0.03759     0.00802     0.01626     0.05479     0.06901
 PY  C   4  -0.00491    -0.00274     0.05447    -0.05099     0.11685    -0.08025
 PZ  C   4   0.02245    -0.06136    -0.04460    -0.28960    -0.13435    -0.05015
  
  S  C   5  -0.09182    -0.12407     0.22028     0.00379     0.11734     0.22201
 PX  C   5  -0.01838    -0.05950     0.04904    -0.01880    -0.02425     0.03061
 PY  C   5   0.00160    -0.00149    -0.00776     0.00358    -0.02392    -0.00344
 PZ  C   5  -0.18109     0.18612     0.01261     0.25471     0.08302    -0.00456
  
  S  C   6   0.06549     0.07723    -0.16784     0.00290    -0.15472    -0.15698
 PX  C   6  -0.00999     0.04218    -0.02969     0.02997    -0.01313    -0.00631
 PY  C   6   0.00939     0.01183    -0.00795    -0.02282     0.03847    -0.06263
 PZ  C   6   0.25953    -0.22127    -0.02247    -0.24586    -0.07740     0.00749
  
  S  C   7   0.13455     0.19106    -0.15406     0.04497    -0.00384     0.23958
 PX  C   7   0.01090    -0.02011     0.08352    -0.04337     0.10054     0.04262
 PY  C   7   0.03508     0.03466     0.01878    -0.02544     0.06833     0.05384
 PZ  C   7  -0.14399     0.12446    -0.00607    -0.14477    -0.07228    -0.03726
  
  S  C   8  -0.11605    -0.22922     0.15363     0.06713    -0.20760     0.18200
 PX  C   8  -0.03267    -0.04225    -0.06071     0.05761    -0.14839    -0.01282
 PY  C   8   0.01376     0.03190    -0.06498     0.02216    -0.05278    -0.02976
 PZ  C   8   0.14264    -0.03011    -0.01451     0.12481     0.09023     0.04083
  
  S  C   9   0.14771     0.25693    -0.02051    -0.15344     0.37949    -0.08241
 PX  C   9   0.02393    -0.00033     0.07039    -0.01607     0.01227     0.07522
 PY  C   9  -0.00586    -0.00831     0.04166    -0.02317    -0.00911    -0.14065
 PZ  C   9  -0.28592     0.13720     0.06431     0.03307    -0.07713    -0.06215
  
  S  C  10  -0.17790    -0.21081     0.02494     0.05868    -0.22099    -0.27668
 PX  C  10  -0.01517     0.03083    -0.07232    -0.01531     0.06484    -0.07640
 PY  C  10  -0.02518    -0.02861    -0.03597     0.06409    -0.13463     0.08661
 PZ  C  10   0.26941    -0.23449    -0.04853     0.00176     0.01741     0.04312
  
  S  C  11   0.15876     0.18050     0.11022    -0.02069     0.02029     0.31145
 PX  C  11  -0.00832    -0.03517     0.06692     0.00858    -0.10906    -0.02855
 PY  C  11   0.02729     0.03666     0.06485     0.01015    -0.04138     0.02428
 PZ  C  11  -0.11531     0.12189     0.05866     0.13198     0.02385    -0.08343
  
  S  H  12  -0.08124    -0.09447    -0.06395     0.02943    -0.03342    -0.14724
  
  S  C  13  -0.11930    -0.22313    -0.11413     0.14609    -0.20693     0.14506
 PX  C  13  -0.00044     0.00228    -0.08276    -0.01238     0.11101     0.00389
 PY  C  13   0.01548     0.04291    -0.01857    -0.01223     0.06975    -0.01075
 PZ  C  13   0.10799    -0.04355    -0.07314    -0.17288     0.01949     0.05320
  
  S  H  14  -0.07272    -0.10661     0.09609    -0.01769    -0.01587    -0.10814
  
  S  H  15   0.02239     0.06174    -0.09958     0.05200    -0.12782     0.01939
  
  S  H  16  -0.03756    -0.07904     0.13097    -0.06660     0.12994    -0.02952
  
  S  H  17   0.04988     0.06705    -0.13573     0.00532    -0.09727    -0.11819
  
  S  H  18  -0.04570    -0.04759     0.10711     0.00454     0.09356     0.10987
  
  S  H  19   0.06543     0.13136    -0.09703    -0.03332     0.12803    -0.08233
  
  S  H  20   0.06849     0.12400     0.06902    -0.08564     0.12276    -0.04082
  
  S  C  21   0.13705     0.12837     0.23842     0.04759    -0.21279     0.14841
 PX  C  21  -0.02530    -0.06139    -0.04480     0.02497     0.01508    -0.10123
 PY  C  21   0.01616    -0.00937     0.01352     0.02118    -0.01582    -0.04851
 PZ  C  21   0.18651    -0.12163    -0.01228     0.20572     0.10077    -0.09270
  
  S  C  22  -0.12290    -0.06829    -0.20353    -0.07779     0.20343     0.05291
 PX  C  22  -0.02663     0.05729     0.04523    -0.03868    -0.04261     0.00746
 PY  C  22   0.00036     0.01709     0.00255     0.00242    -0.01103     0.12369
 PZ  C  22  -0.25977     0.16497     0.02286    -0.18831    -0.09739     0.06357
  
  S  C  23   0.09392     0.09299     0.21110     0.00735    -0.15461    -0.25753
 PX  C  23  -0.00046    -0.02857    -0.01703     0.02838    -0.02287     0.03927
 PY  C  23  -0.02397    -0.00337    -0.02822    -0.02701     0.04000    -0.02924
 PZ  C  23   0.29331    -0.16492     0.00347     0.20795     0.07622    -0.05199
  
  S  C  24  -0.11913    -0.13107    -0.23658     0.03130     0.09922     0.26231
 PX  C  24   0.00207     0.02531    -0.00288    -0.02964     0.04339     0.03430
 PY  C  24   0.01093     0.04989     0.03690    -0.03969     0.00410     0.00258
 PZ  C  24  -0.23139     0.12594    -0.02628    -0.23409    -0.06540     0.04803
  
  S  H  25  -0.07293    -0.07936    -0.15216    -0.02028     0.13806    -0.06982
  
  S  H  26   0.08943     0.03540     0.12579     0.06444    -0.12594    -0.02723
  
  S  H  27  -0.04660    -0.06693    -0.12940     0.01246     0.09099     0.17026
  
  S  H  28   0.07863     0.06634     0.14988     0.00050    -0.08223    -0.15193
  
  S  C  29  -0.16755    -0.19565    -0.26072     0.00834     0.16020    -0.23177
 PX  C  29  -0.00414     0.02654    -0.02966    -0.03917     0.07428    -0.01420
 PY  C  29  -0.00158    -0.01053    -0.05462     0.02619     0.01364     0.13429
 PZ  C  29  -0.06613     0.00307    -0.06688    -0.28232    -0.07047     0.11477
  
  S  C  30   0.13183     0.20648     0.25055    -0.09967    -0.03943    -0.11120
 PX  C  30   0.01284    -0.01764     0.06330     0.04697    -0.12086     0.04163
 PY  C  30  -0.01333    -0.02285    -0.00747    -0.00050     0.01985    -0.15055
 PZ  C  30   0.08574    -0.03138     0.08886     0.30642     0.04562    -0.09390




    ROOT NO.   55          56          57          58          59          60

             3.62215     3.74207     3.80595     3.91695     4.21074     4.23767
  
  
  S  C   1  -0.02198    -0.24853     0.36667     0.00584    -0.08042    -0.01047
 PX  C   1  -0.00782     0.06447     0.01658    -0.09861    -0.12235    -0.03979
 PY  C   1   0.00372    -0.06723     0.00585     0.07332     0.06507     0.00226
 PZ  C   1   0.12116     0.01356     0.03647    -0.02805    -0.02126    -0.00517
  
  S  C   2   0.02647     0.02875    -0.22839     0.19069     0.28780     0.09486
 PX  C   2   0.00333    -0.12633     0.12772     0.06597     0.01788     0.00165
 PY  C   2  -0.00561    -0.07030     0.07346     0.03983    -0.03665    -0.02684
 PZ  C   2  -0.15437    -0.02724    -0.01254     0.02419     0.01048     0.00593
  
  S  C   3  -0.01669     0.20970    -0.13127    -0.22907    -0.07062     0.05878
 PX  C   3   0.01690     0.05849     0.02843    -0.01314     0.12836     0.13254
 PY  C   3   0.00229     0.04201    -0.19263     0.07749     0.08495    -0.01467
 PZ  C   3   0.27105     0.05284     0.01212    -0.04173    -0.00210    -0.00124
  
  S  C   4   0.02064    -0.09778     0.34256    -0.02835     0.00626     0.07375
 PX  C   4   0.00352    -0.11064    -0.01881     0.10560     0.16951     0.07429
 PY  C   4  -0.00787     0.04801    -0.00747    -0.11446     0.03595     0.11179
 PZ  C   4  -0.25936    -0.05454     0.00623     0.04078     0.01619     0.01117
  
  S  C   5  -0.00211    -0.15044    -0.16436     0.20564     0.29848     0.10732
 PX  C   5  -0.01453     0.09786    -0.14108    -0.04952    -0.06747    -0.02771
 PY  C   5   0.00317     0.06483    -0.09180    -0.01628     0.03647     0.02620
 PZ  C   5   0.15686     0.05754     0.01554    -0.05292    -0.04368    -0.01469
  
  S  C   6   0.00387     0.32355    -0.19262    -0.21626    -0.15209    -0.01660
 PX  C   6   0.01376     0.00308     0.00753     0.00765    -0.01095    -0.02339
 PY  C   6  -0.00571    -0.03740     0.16021    -0.05804    -0.11626    -0.03700
 PZ  C   6  -0.12737    -0.05467    -0.00187     0.04577     0.02471     0.00200
  
  S  C   7  -0.02971    -0.21370    -0.03193     0.13116    -0.19338    -0.28642
 PX  C   7  -0.01518     0.03501    -0.07759    -0.08999    -0.08965    -0.01839
 PY  C   7  -0.02176     0.00401    -0.06192    -0.06440    -0.00838     0.05598
 PZ  C   7  -0.25464    -0.03691    -0.02692     0.02775    -0.01709    -0.00299
  
  S  C   8   0.02967     0.07881    -0.10825     0.13598    -0.20556    -0.29745
 PX  C   8   0.00841    -0.01733     0.14275     0.01588    -0.01517     0.05530
 PY  C   8   0.00674    -0.01846     0.08646     0.01384    -0.04277    -0.03527
 PZ  C   8   0.23084     0.02502     0.01678    -0.03083     0.00497     0.00935
  
  S  C   9  -0.05130    -0.01234    -0.16449    -0.11966     0.09377    -0.02732
 PX  C   9   0.01402     0.03262    -0.07708     0.06589    -0.07429    -0.16983
 PY  C   9   0.04392     0.08454     0.06874     0.06890     0.13226    -0.09780
 PZ  C   9  -0.30798    -0.01678    -0.01131     0.04115    -0.01715    -0.01324
  
  S  C  10   0.07143     0.10513     0.22156     0.08725     0.18091     0.00844
 PX  C  10  -0.00302    -0.06035    -0.04356     0.02355     0.06897    -0.14801
 PY  C  10   0.00199    -0.05295     0.04089     0.08545    -0.09905    -0.07085
 PZ  C  10   0.33472     0.03613     0.05656    -0.02442     0.04170    -0.01147
  
  S  C  11  -0.06917     0.05509    -0.02132    -0.04086    -0.22805     0.29400
 PX  C  11   0.02620     0.08655     0.13149     0.01782     0.03478     0.04849
 PY  C  11  -0.02167     0.05794     0.05774     0.00470     0.04718    -0.02775
 PZ  C  11  -0.24708    -0.00247    -0.02399     0.03815    -0.02073     0.01639
  
  S  H  12   0.02621    -0.04415     0.01971     0.00974     0.16913    -0.26203
  
  S  C  13  -0.01609    -0.16730     0.01837    -0.12437    -0.16031     0.32036
 PX  C  13  -0.03340    -0.06411    -0.07415    -0.12036     0.03435    -0.05182
 PY  C  13  -0.03235    -0.02209    -0.02990    -0.05963    -0.02022     0.08097
 PZ  C  13   0.24809     0.00084     0.00517    -0.02407     0.01103     0.00499
  
  S  H  14   0.01251     0.14246    -0.00945    -0.08208     0.16000     0.26406
  
  S  H  15   0.01354     0.14263    -0.22083     0.00401     0.02390    -0.02343
  
  S  H  16  -0.02098    -0.03462     0.14659    -0.11275    -0.23421    -0.10412
  
  S  H  17  -0.00107     0.09183     0.11158    -0.12435    -0.25345    -0.11994
  
  S  H  18  -0.00067    -0.21292     0.12706     0.14760     0.07368    -0.02032
  
  S  H  19  -0.02604    -0.07793     0.06118    -0.08836     0.17416     0.27491
  
  S  H  20   0.00054     0.12105    -0.01082     0.07268     0.12836    -0.30868
  
  S  C  21  -0.05465     0.02396     0.14505    -0.28023     0.22015    -0.12637
 PX  C  21   0.01419    -0.12303    -0.08159    -0.08144     0.04548    -0.05820
 PY  C  21   0.01266    -0.08458    -0.06078    -0.02198    -0.03882     0.01955
 PZ  C  21  -0.14428     0.02909    -0.01787     0.07941    -0.03025     0.01319
  
  S  C  22  -0.01798     0.26423     0.09264     0.29933    -0.07702     0.05865
 PX  C  22   0.02985    -0.00252     0.01025    -0.00827     0.01916    -0.01863
 PY  C  22  -0.05450     0.10231     0.10326    -0.06977     0.08839    -0.03714
 PZ  C  22   0.11698    -0.05282    -0.00853    -0.06338     0.00017     0.00926
  
  S  C  23   0.13228    -0.30100    -0.19553    -0.04555    -0.05700    -0.01055
 PX  C  23  -0.02385    -0.05518    -0.00659    -0.14010     0.07410    -0.06984
 PY  C  23   0.02103     0.03636    -0.00509     0.10129    -0.03654     0.01057
 PZ  C  23  -0.12610     0.03794     0.00781     0.03392     0.00507    -0.01091
  
  S  C  24  -0.13850     0.08038     0.09698    -0.26144     0.18283    -0.14305
 PX  C  24  -0.01587     0.14583     0.08140     0.11165    -0.00594     0.03018
 PY  C  24   0.01011     0.08744     0.06034     0.04162     0.04517    -0.01896
 PZ  C  24   0.16793    -0.03499    -0.00973    -0.01678    -0.01553     0.02171
  
  S  H  25   0.02685    -0.02459    -0.10885     0.19482    -0.20289     0.13922
  
  S  H  26   0.00086    -0.17797    -0.06865    -0.19155     0.02048    -0.00549
  
  S  H  27  -0.09355     0.18260     0.12051     0.02761     0.00863     0.04602
  
  S  H  28   0.08419    -0.06660    -0.06848     0.18011    -0.16814     0.14937
  
  S  C  29   0.04501    -0.22596    -0.21479    -0.01820     0.00049    -0.10154
 PX  C  29   0.02209     0.03491    -0.04226     0.15689    -0.12974     0.09262
 PY  C  29  -0.04853    -0.06451    -0.04217    -0.12333    -0.06464     0.08690
 PZ  C  29   0.27074    -0.01259     0.02237    -0.05197     0.01622    -0.00331
  
  S  C  30   0.07684     0.23403     0.12559     0.29773     0.00395    -0.00878
 PX  C  30   0.00942    -0.02731     0.02659     0.01385    -0.08853     0.15195
 PY  C  30   0.05279    -0.09279    -0.09949     0.08702    -0.05813     0.00219
 PZ  C  30  -0.28076     0.02337    -0.00418     0.04131    -0.00167    -0.01612




    ROOT NO.   61          62          63          64          65          66

             5.23646     5.39154     5.49941     5.70618     6.15077     6.43461
  
  
  S  C   1   0.05400    -0.00320    -0.25090    -0.22335    -0.10193     0.04179
 PX  C   1  -0.10765     0.03077     0.02946     0.18272     0.13406    -0.07405
 PY  C   1   0.05310    -0.02744     0.25042     0.10413     0.03984    -0.01735
 PZ  C   1  -0.00290     0.00230    -0.02836    -0.01337    -0.00317     0.00028
  
  S  C   2   0.14536    -0.03881    -0.01415    -0.20173    -0.14244     0.08149
 PX  C   2   0.05793    -0.00757    -0.15944    -0.17076    -0.08536     0.03740
 PY  C   2  -0.02493     0.00997     0.01334     0.12278     0.17809    -0.16492
 PZ  C   2   0.00251    -0.00048    -0.00600    -0.00777    -0.00671     0.00575
  
  S  C   3  -0.04438    -0.00295     0.07294    -0.00766    -0.12371     0.14032
 PX  C   3   0.16532    -0.04716     0.02482    -0.08672     0.07019    -0.10453
 PY  C   3   0.02155    -0.00719     0.01094    -0.10388    -0.16719     0.14022
 PZ  C   3   0.00085    -0.00026     0.00447    -0.00056    -0.00179     0.00121
  
  S  C   4   0.07057    -0.01167    -0.03816     0.03726     0.16561    -0.14323
 PX  C   4  -0.10166     0.03883    -0.07152     0.10991     0.08529    -0.04984
 PY  C   4  -0.08103     0.00918     0.07209     0.05746    -0.10614     0.15365
 PZ  C   4   0.00060     0.00067    -0.00559     0.00718     0.01135    -0.00663
  
  S  C   5  -0.14189     0.05623    -0.13990     0.12843     0.11582    -0.06002
 PX  C   5  -0.03387     0.00016     0.01504    -0.05032    -0.13666     0.11562
 PY  C   5  -0.12489     0.05641    -0.25597     0.05428     0.13445    -0.10699
 PZ  C   5   0.00756    -0.00346     0.00380    -0.01490    -0.01502     0.00965
  
  S  C   6  -0.15285     0.05798    -0.28888    -0.00269     0.03278    -0.01896
 PX  C   6   0.09922    -0.04722     0.29699     0.03618    -0.03362     0.02225
 PY  C   6   0.07738    -0.02433    -0.04102    -0.15503    -0.10838     0.05158
 PZ  C   6   0.01790    -0.00792     0.05123     0.00830    -0.00308     0.00203
  
  S  C   7  -0.23278     0.06462    -0.03706     0.09233    -0.08741     0.11510
 PX  C   7  -0.07305     0.00858    -0.00117    -0.01022    -0.09599     0.12047
 PY  C   7   0.08201    -0.04682     0.03380    -0.12116     0.07350    -0.24593
 PZ  C   7  -0.00293    -0.00067    -0.00196    -0.00151    -0.00340     0.00448
  
  S  C   8   0.17144    -0.03640    -0.04218    -0.13119     0.06044    -0.13427
 PX  C   8  -0.01321     0.00192    -0.04543     0.09800     0.03905     0.12655
 PY  C   8   0.08308    -0.01557    -0.06260    -0.06492     0.12313    -0.22186
 PZ  C   8  -0.00289     0.00055     0.00153     0.00398     0.00098     0.00270
  
  S  C   9  -0.00435     0.00407     0.07298    -0.11661    -0.04429    -0.14396
 PX  C   9   0.13446    -0.03021    -0.02494    -0.08348     0.06092    -0.11082
 PY  C   9   0.09330     0.02549    -0.04629     0.10797     0.07058     0.18068
 PZ  C   9   0.01110    -0.00260    -0.00956     0.00754     0.00943     0.01212
  
  S  C  10   0.01320     0.04163    -0.03032     0.14492     0.01490     0.17194
 PX  C  10  -0.15723     0.04657     0.05505    -0.04432    -0.10404    -0.09145
[...]
  S   H   18   -0.0444    0.0299   -0.0142    0.0371    0.0697    0.0023    0.3072   -0.0772
  S   H   19   -0.0991    0.2630    0.1732    0.0491   -0.2607   -0.0094    0.0746    0.1574
  S   H   20    0.2204    0.2338    0.2798    0.0680   -0.0237    0.0448   -0.0098   -0.1777
  S   C   21    0.0986    0.0297   -0.0364    0.0024   -0.0045    0.0668   -0.0003   -0.0236
  Px  C   21    0.1078    0.0383   -0.2663    0.1964   -0.1913   -0.0698    0.0037    0.1284
  Py  C   21   -0.1363   -0.0602    0.1090   -0.0664    0.0730    0.2596   -0.0010   -0.0251
  Pz  C   21   -0.0081   -0.0012    0.0061   -0.0048    0.0040   -0.0059   -0.0001   -0.0017
  S   C   22    0.0636    0.0277    0.0472   -0.0318    0.0290   -0.0999   -0.0004   -0.0375
  Px  C   22    0.0727    0.0319    0.0485   -0.0350    0.0364    0.5100    0.0024    0.1461
  Py  C   22    0.0661    0.0116   -0.0543    0.0351   -0.0313   -0.0732    0.0000   -0.0605
  Pz  C   22   -0.0181   -0.0070   -0.0018    0.0009   -0.0016   -0.0859   -0.0004   -0.0225
  S   C   23   -0.0342    0.0010    0.0512   -0.0295    0.0279    0.1288    0.0007    0.0406
  Px  C   23   -0.1097   -0.0363   -0.0035    0.0208   -0.0146   -0.2090   -0.0024   -0.0140
  Py  C   23    0.0026    0.0113    0.0700   -0.0394    0.0394   -0.4457   -0.0028   -0.1442
  Pz  C   23    0.0033    0.0006   -0.0041    0.0031   -0.0029    0.0079    0.0001    0.0000
  S   C   24   -0.1139   -0.0375   -0.0138   -0.0013   -0.0001   -0.0633   -0.0005    0.0341
  Px  C   24    0.0364    0.0004   -0.0593    0.0511   -0.0448   -0.1942   -0.0016   -0.0339
  Py  C   24   -0.2244   -0.1399   -0.2069    0.1764   -0.1653    0.2319   -0.0002   -0.1476
  Pz  C   24    0.0168    0.0088    0.0119   -0.0117    0.0105   -0.0087    0.0000    0.0065
  S   H   25   -0.1806   -0.0658    0.1975   -0.1249    0.1274    0.1460   -0.0018   -0.0522
  S   H   26   -0.0973   -0.0409   -0.0412    0.0263   -0.0270   -0.3280   -0.0018   -0.0946
  S   H   27    0.0730    0.0151   -0.0502    0.0151   -0.0183    0.2847    0.0023    0.0761
  S   H   28    0.2218    0.1093    0.1262   -0.1012    0.0969   -0.1774   -0.0002    0.0663
  S   C   29    0.1417    0.0566   -0.2008    0.1754   -0.1608    0.0188    0.0005    0.0192
  Px  C   29   -0.0753   -0.0324   -0.0356    0.0786   -0.0671   -0.0912    0.0047    0.1703
  Py  C   29    0.1886    0.1493    0.0335   -0.1166    0.0776   -0.0346   -0.0014    0.1256
  Pz  C   29   -0.0017   -0.0027    0.0054   -0.0003    0.0015   -0.0033    0.0002    0.0020
  S   C   30   -0.2083   -0.1416   -0.1533    0.1716   -0.1453   -0.0042    0.0012   -0.0110
  Px  C   30   -0.0809   -0.0619    0.0709   -0.0460    0.0434    0.0818   -0.0008   -0.2333
  Py  C   30    0.1351    0.0624   -0.0835    0.1280   -0.1097    0.0677   -0.0026   -0.0813
  Pz  C   30   -0.0056   -0.0015    0.0007    0.0071   -0.0046   -0.0034    0.0001    0.0064


   Root No.      73        74        75        76        77        78        79        80

                73 A      74 A      75 A      76 A      77 A      78 A      79 A      80 A   

                 9.371     9.581    10.111    10.695    11.103    11.639    11.899    12.259
  
  S   C    1    0.0407    0.0767    0.0615   -0.0522   -0.0432    0.0178    0.0148   -0.0030
  Px  C    1    0.1440    0.2492   -0.0265   -0.2364    0.1373   -0.1738    0.0002   -0.1953
  Py  C    1    0.0813    0.1473    0.2390   -0.0100   -0.2128    0.1576    0.0379    0.1208
  Pz  C    1    0.0042    0.0077    0.0025   -0.0069    0.0010   -0.0035    0.0014   -0.0057
  S   C    2   -0.0602   -0.0827    0.0677    0.0541   -0.0815    0.0471    0.0381    0.0059
  Px  C    2    0.1373    0.2487    0.0375   -0.2409    0.0560   -0.1321    0.0476   -0.2092
  Py  C    2   -0.1830   -0.1974    0.2201    0.0281   -0.1831    0.0393    0.1398   -0.1091
  Pz  C    2    0.0129    0.0187   -0.0068   -0.0126    0.0101   -0.0085   -0.0029   -0.0061
  S   C    3   -0.0190   -0.0522   -0.0041    0.0623   -0.0328    0.0265    0.0164    0.0056
  Px  C    3   -0.1500   -0.1510    0.2588   -0.0093   -0.0335   -0.0033   -0.2310    0.1067
  Py  C    3   -0.0554   -0.0174    0.1682   -0.0433   -0.2223    0.0042    0.3565   -0.3006
  Pz  C    3   -0.0022   -0.0031    0.0035    0.0016   -0.0014    0.0022   -0.0044    0.0032
  S   C    4   -0.0209   -0.0494   -0.0090    0.0514    0.0297   -0.0209   -0.0115   -0.0098
  Px  C    4   -0.1262   -0.1515   -0.2569   -0.1443    0.1853   -0.0181   -0.1606    0.1620
  Py  C    4   -0.0755   -0.1320   -0.1320    0.0047   -0.1054    0.0017    0.4062   -0.2786
  Pz  C    4   -0.0046   -0.0075   -0.0085   -0.0002    0.0012   -0.0008    0.0096   -0.0071
  S   C    5   -0.0674   -0.1065   -0.0731    0.0244    0.0857   -0.0516   -0.0388   -0.0133
  Px  C    5   -0.0710   -0.0630   -0.1767   -0.1779    0.1051    0.0218   -0.1297    0.1799
  Py  C    5    0.1930    0.3005    0.1072   -0.1413   -0.1400    0.1109    0.0393    0.1022
  Pz  C    5    0.0021    0.0039    0.0012   -0.0039   -0.0023    0.0025   -0.0005    0.0041
  S   C    6    0.0361    0.0604   -0.0572   -0.0835    0.0425   -0.0232   -0.0138    0.0009
  Px  C    6    0.1067    0.1661   -0.1558   -0.1914    0.0905   -0.0449   -0.0243   -0.0012
  Py  C    6    0.0843    0.1622    0.1748   -0.0792   -0.2364    0.2191    0.0250    0.2186
  Pz  C    6    0.0104    0.0170   -0.0056   -0.0151   -0.0004    0.0034   -0.0018    0.0068
  S   C    7    0.0740    0.0324   -0.0945    0.0724   -0.0363    0.0650    0.0557   -0.0121
  Px  C    7   -0.1159   -0.1566    0.1591    0.0575   -0.0580    0.0690   -0.1947    0.1156
  Py  C    7    0.2145    0.0486   -0.1734    0.2181   -0.1054    0.1942    0.0223    0.0073
  Pz  C    7   -0.0055   -0.0052    0.0059    0.0009   -0.0003    0.0003   -0.0053    0.0031
  S   C    8    0.0529    0.0407    0.0703    0.0718    0.0528   -0.0615   -0.0632    0.0205
  Px  C    8    0.1013   -0.0412    0.0084    0.1876    0.1615   -0.2181    0.0895   -0.0923
  Py  C    8   -0.1887   -0.1870   -0.2049   -0.1178   -0.0523    0.0447    0.2020   -0.1206
  Pz  C    8   -0.0025   -0.0090   -0.0068    0.0044    0.0068   -0.0093    0.0113   -0.0086
  S   C    9   -0.0138    0.0343    0.0368    0.0062    0.0038   -0.0181   -0.0257   -0.0008
  Px  C    9    0.1274   -0.0092    0.0595    0.2393    0.2328   -0.2588    0.0239   -0.0756
  Py  C    9    0.0701    0.0433   -0.1345    0.1105    0.1191    0.4258   -0.0633   -0.0398
  Pz  C    9    0.0083    0.0001   -0.0070    0.0131    0.0127    0.0196   -0.0046   -0.0052
  S   C   10   -0.0082    0.0348   -0.0367   -0.0088   -0.0037    0.0109    0.0269    0.0032
  Px  C   10    0.1395    0.0201    0.0054    0.2586   -0.1744   -0.2305    0.0397    0.0560
  Py  C   10    0.1062   -0.0310   -0.1613    0.1387   -0.0926    0.4453   -0.0540    0.0279
  Pz  C   10    0.0087    0.0038   -0.0116    0.0146   -0.0102    0.0113    0.0027    0.0042
  S   C   11   -0.0657    0.0267   -0.0498   -0.0890    0.0336    0.0623    0.0463    0.0152
  Px  C   11    0.0827    0.0521   -0.0430    0.1962   -0.1301   -0.1871    0.0971    0.0789
  Py  C   11   -0.2149    0.1288   -0.1549   -0.1279    0.0147    0.0630    0.1635    0.1100
  Pz  C   11    0.0172   -0.0024    0.0055    0.0215   -0.0131   -0.0197   -0.0014    0.0015
  S   H   12   -0.1326    0.0533   -0.0730   -0.1046    0.0453    0.0893    0.0643    0.0404
  S   C   13   -0.0786    0.0304    0.0757   -0.0683   -0.0465   -0.0417   -0.0535   -0.0144
  Px  C   13   -0.1285    0.1262    0.1268    0.0491    0.0877    0.0860   -0.1834   -0.1381
  Py  C   13    0.1868   -0.0166   -0.1168    0.2048    0.1532    0.1568    0.0137   -0.0139
  Pz  C   13    0.0160   -0.0042   -0.0131    0.0138    0.0091    0.0097    0.0076    0.0018
  S   H   14    0.1409    0.0716   -0.1311    0.0787   -0.0360    0.0831    0.0696   -0.0328
  S   H   15    0.0913    0.1630    0.1137   -0.0864   -0.0610    0.0202    0.0211   -0.0055
  S   H   16   -0.1314   -0.1676    0.1043    0.0786   -0.1125    0.0579    0.0648   -0.0027
  S   H   17   -0.1136   -0.1626   -0.1047    0.0158    0.1020   -0.0512   -0.0594    0.0016
  S   H   18    0.0620    0.0971   -0.0947   -0.1116    0.0563   -0.0286   -0.0167   -0.0030
  S   H   19    0.1236    0.0806    0.1045    0.1002    0.0692   -0.0878   -0.0751    0.0356
  S   H   20   -0.1212    0.0342    0.0879   -0.0833   -0.0605   -0.0698   -0.0547   -0.0289
  S   C   21    0.0877   -0.0854    0.0715   -0.0391    0.0907    0.0484    0.0364   -0.0118
  Px  C   21   -0.0851    0.0326   -0.1220   -0.1878   -0.1374    0.0509   -0.1178   -0.2020
  Py  C   21    0.2781   -0.2730    0.1378   -0.1926    0.1475    0.1292    0.0379   -0.1167
  Pz  C   21   -0.0115    0.0132   -0.0065    0.0152   -0.0094   -0.0117   -0.0007    0.0124
  S   C   22   -0.0609    0.0665    0.0198    0.0823    0.0442    0.0081    0.0102    0.0003
  Px  C   22    0.1646   -0.1678   -0.0781   -0.1804   -0.1171   -0.0293   -0.0217    0.0145
  Py  C   22    0.1250   -0.1452    0.1672   -0.1545    0.2465    0.2255    0.0293   -0.2446
  Pz  C   22   -0.0333    0.0348    0.0067    0.0366    0.0109   -0.0035    0.0036    0.0080
  S   C   23   -0.0567    0.0653   -0.0606    0.0709   -0.0390   -0.0229   -0.0145   -0.0089
  Px  C   23    0.1735   -0.1898   -0.0028   -0.2101   -0.1870   -0.1497   -0.0063    0.2321
  Py  C   23    0.0789   -0.0863    0.1792   -0.0568    0.2089    0.1453    0.0333   -0.1297
  Pz  C   23   -0.0033    0.0031    0.0018    0.0031    0.0070    0.0061    0.0001   -0.0084
  S   C   24    0.0827   -0.0745   -0.0502   -0.0410   -0.1071   -0.0536   -0.0432    0.0126
  Px  C   24    0.1716   -0.1941    0.0558   -0.2322   -0.0888   -0.0961    0.0419    0.2397
  Py  C   24   -0.2283    0.1645    0.1676   -0.0182    0.2107    0.0613    0.1408    0.1211
  Pz  C   24    0.0061   -0.0030   -0.0076    0.0047   -0.0067   -0.0011   -0.0057   -0.0077
  S   H   25    0.1593   -0.1393    0.1015   -0.0357    0.1122    0.0487    0.0553    0.0033
  S   H   26   -0.0951    0.0976    0.0514    0.1057    0.0731    0.0186    0.0160   -0.0074
  S   H   27   -0.0965    0.1068   -0.0862    0.0987   -0.0398   -0.0213   -0.0161   -0.0126
  S   H   28    0.1617   -0.1339   -0.0680   -0.0521   -0.1273   -0.0555   -0.0597    0.0038
  S   C   29    0.0241   -0.0426    0.0193   -0.0628    0.0411    0.0287    0.0269    0.0059
  Px  C   29   -0.1495    0.1020   -0.2062   -0.1416   -0.2319    0.0076   -0.1462   -0.1891
  Py  C   29   -0.0875    0.0924   -0.1121   -0.0103    0.1094    0.0153    0.3687    0.2842
  Pz  C   29   -0.0011    0.0009   -0.0011    0.0005    0.0004    0.0031   -0.0019   -0.0022
  S   C   30    0.0182   -0.0371    0.0047   -0.0586   -0.0449   -0.0211   -0.0137    0.0085
  Px  C   30   -0.1848    0.1325    0.2125   -0.0316    0.0418    0.0258   -0.2179   -0.1276
  Py  C   30   -0.0782    0.0268    0.1387   -0.0882    0.2523    0.0368    0.3467    0.3354
  Pz  C   30    0.0065   -0.0046   -0.0085    0.0025   -0.0079   -0.0032   -0.0007   -0.0025


   Root No.      81        82        83        84

                81 A      82 A      83 A      84 A   

                12.608    12.725    13.242    14.551
  
  S   C    1   -0.0626    0.0221   -0.0037    0.0391
  Px  C    1   -0.2316   -0.1852   -0.1828    0.1037
  Py  C    1   -0.0129    0.1827    0.1140    0.0279
  Pz  C    1   -0.0079   -0.0044   -0.0048    0.0039
  S   C    2   -0.0082    0.0255    0.0156    0.0267
  Px  C    2   -0.2861   -0.1662   -0.1814    0.1506
  Py  C    2   -0.1596   -0.0218   -0.0370    0.1203
  Pz  C    2   -0.0075   -0.0070   -0.0069    0.0025
  S   C    3    0.0098    0.0005   -0.0081    0.0281
  Px  C    3   -0.2592   -0.0213   -0.2640    0.2462
  Py  C    3   -0.1718   -0.0933    0.0185    0.0980
  Pz  C    3   -0.0030    0.0003   -0.0035    0.0039
  S   C    4    0.0140   -0.0152    0.0021    0.0193
  Px  C    4   -0.1897    0.2500    0.1092    0.2051
  Py  C    4   -0.1148    0.0436    0.2222    0.1136
  Pz  C    4   -0.0061    0.0037    0.0085    0.0075
  S   C    5   -0.0089   -0.0293   -0.0242    0.0221
  Px  C    5   -0.1967    0.2871    0.1251    0.1835
  Py  C    5   -0.0784    0.2104    0.1316    0.0605
  Pz  C    5   -0.0031    0.0073    0.0039    0.0027
  S   C    6   -0.0663    0.0312    0.0071    0.0422
  Px  C    6   -0.1333    0.0583    0.0111    0.0797
  Py  C    6   -0.0568    0.3452    0.2147    0.0722
  Pz  C    6   -0.0092    0.0132    0.0064    0.0060
  S   C    7    0.0563   -0.0218    0.0116    0.0097
  Px  C    7   -0.2212   -0.0333   -0.2655    0.2701
  Py  C    7   -0.0096   -0.0909   -0.1058    0.1530
  Pz  C    7   -0.0055   -0.0004   -0.0064    0.0078
  S   C    8    0.0607   -0.0168   -0.0085    0.0099
  Px  C    8   -0.0302    0.1486    0.2278    0.2404
  Py  C    8   -0.1582    0.0891    0.1446    0.1088
  Pz  C    8   -0.0065    0.0097    0.0157    0.0141
  S   C    9    0.0534   -0.0326    0.0087    0.0093
  Px  C    9    0.0323    0.1097    0.2372    0.2662
  Py  C    9   -0.0597   -0.2251    0.1212    0.1359
  Pz  C    9   -0.0054   -0.0096    0.0143    0.0149
  S   C   10    0.0656    0.0000    0.0025   -0.0007
  Px  C   10    0.0947    0.1146   -0.2144    0.2868
  Py  C   10   -0.1284   -0.1966   -0.1244    0.1491
  Pz  C   10    0.0040   -0.0036   -0.0138    0.0166
  S   C   11    0.0523   -0.0186   -0.0019   -0.0142
  Px  C   11    0.1758    0.1102   -0.2214    0.2823
  Py  C   11    0.1875   -0.0074   -0.1346    0.1318
  Pz  C   11    0.0041    0.0085   -0.0112    0.0150
  S   H   12    0.0381   -0.0334   -0.0149   -0.0030
  S   C   13    0.0584   -0.0243    0.0163   -0.0056
  Px  C   13    0.1329   -0.1808    0.2793    0.2566
  Py  C   13   -0.0479   -0.0828    0.1094    0.1478
  Pz  C   13   -0.0069    0.0005   -0.0005    0.0045
  S   H   14    0.0450   -0.0365    0.0239   -0.0039
  S   H   15   -0.0795    0.0297   -0.0009    0.0426
  S   H   16   -0.0001    0.0315    0.0326    0.0144
  S   H   17   -0.0128   -0.0247   -0.0312    0.0158
  S   H   18   -0.0732    0.0252    0.0000    0.0399
  S   H   19    0.0594    0.0053   -0.0104    0.0096
  S   H   20    0.0468    0.0067    0.0116   -0.0117
  S   C   21   -0.0017    0.0291   -0.0203   -0.0249
  Px  C   21    0.3093    0.0938   -0.0867    0.1753
  Py  C   21    0.1571    0.1177   -0.1036    0.0487
  Pz  C   21   -0.0157   -0.0101    0.0086   -0.0057
  S   C   22   -0.0648    0.0174   -0.0004   -0.0390
  Px  C   22    0.1225   -0.0504    0.0114    0.0750
  Py  C   22    0.2145    0.2365   -0.1797    0.0602
  Pz  C   22   -0.0273   -0.0014    0.0048   -0.0128
  S   C   23   -0.0549    0.0271   -0.0128   -0.0381
  Px  C   23    0.0680   -0.3011    0.1861    0.1048
  Py  C   23    0.0918    0.1300   -0.0912    0.0213
  Pz  C   23    0.0004    0.0096   -0.0061   -0.0022
  S   C   24   -0.0168   -0.0274    0.0229   -0.0216
  Px  C   24    0.1107   -0.3056    0.1801    0.1429
  Py  C   24    0.0995   -0.1029    0.0336    0.1141
  Pz  C   24   -0.0057    0.0082   -0.0039   -0.0065
  S   H   25   -0.0069    0.0295   -0.0277   -0.0186
  S   H   26   -0.0669    0.0298   -0.0088   -0.0385
  S   H   27   -0.0645    0.0306   -0.0118   -0.0388
  S   H   28   -0.0144   -0.0338    0.0339   -0.0110
  S   C   29    0.0005   -0.0015    0.0053   -0.0334
  Px  C   29    0.3162    0.0764   -0.0889    0.2166
  Py  C   29    0.1322    0.0039   -0.2180    0.1345
  Pz  C   29   -0.0002   -0.0003    0.0005    0.0007
  S   C   30    0.0046   -0.0035   -0.0102   -0.0290
  Px  C   30    0.1706   -0.1892    0.2683    0.2225
  Py  C   30    0.0721   -0.1497   -0.0325    0.0984
  Pz  C   30   -0.0069    0.0093   -0.0084   -0.0086


              NET ATOMIC CHARGES AND DIPOLE CONTRIBUTIONS

  ATOM NO.   TYPE          CHARGE      No. of ELECS.   s-Pop       p-Pop       
    1          C          -0.027456        4.0275     1.08847     2.93898
    2          C          -0.034083        4.0341     1.09657     2.93752
    3          C           0.016423        3.9836     1.05628     2.92729
    4          C           0.016109        3.9839     1.06373     2.92016
    5          C          -0.027355        4.0274     1.09672     2.93063
    6          C          -0.022670        4.0227     1.08473     2.93794
    7          C          -0.027675        4.0277     1.09253     2.93514
    8          C          -0.039140        4.0391     1.10036     2.93878
    9          C           0.004504        3.9955     1.07924     2.91625
   10          C           0.008284        3.9917     1.06625     2.92547
   11          C          -0.035548        4.0355     1.09348     2.94207
   12          H           0.019747        0.9803     0.98025
   13          C          -0.037221        4.0372     1.10572     2.93150
   14          H           0.023899        0.9761     0.97610
   15          H           0.025332        0.9747     0.97467
   16          H           0.026609        0.9734     0.97339
   17          H           0.016135        0.9839     0.98386
   18          H           0.022369        0.9776     0.97763
   19          H           0.036769        0.9632     0.96323
   20          H           0.012895        0.9871     0.98711
   21          C          -0.032133        4.0321     1.10650     2.92563
   22          C          -0.026356        4.0264     1.09396     2.93240
   23          C          -0.020336        4.0203     1.09376     2.92657
   24          C          -0.026785        4.0268     1.09730     2.92949
   25          H           0.023804        0.9762     0.97620
   26          H           0.027778        0.9722     0.97222
   27          H           0.015973        0.9840     0.98403
   28          H           0.030348        0.9697     0.96965
   29          C           0.013990        3.9860     1.06408     2.92193
   30          C           0.015789        3.9842     1.05799     2.92623
 DIPOLE           X         Y         Z       TOTAL
 POINT-CHG.     0.007    -0.038    -0.055     0.067
 HYBRID         0.064     0.005    -0.211     0.220
 SUM            0.071    -0.033    -0.266     0.277


          ATOMIC ORBITAL ELECTRON POPULATIONS

     Atom    s        px        py        pz   
    1  C   1.08847   0.97570   0.96377   0.99951
    2  C   1.09657   0.97282   0.95450   1.01020
    3  C   1.05628   0.96974   0.96818   0.98938
    4  C   1.06373   0.97015   0.97007   0.97994
    5  C   1.09672   0.97051   0.95569   1.00442
    6  C   1.08473   0.94425   0.99866   0.99503
    7  C   1.09253   0.96533   0.96156   1.00825
    8  C   1.10036   0.96325   0.95378   1.02175
    9  C   1.07924   0.96160   0.97311   0.98153
   10  C   1.06625   0.97066   0.97343   0.98137
   11  C   1.09348   0.97028   0.95138   1.02041
   12  H   0.98025
   13  C   1.10572   0.97305   0.93963   1.01882
   14  H   0.97610
   15  H   0.97467
   16  H   0.97339
   17  H   0.98386
   18  H   0.97763
   19  H   0.96323
   20  H   0.98711
   21  C   1.10650   0.96082   0.95674   1.00806
   22  C   1.09396   0.95070   0.99389   0.98781
   23  C   1.09376   0.97006   0.95674   0.99977
   24  C   1.09730   0.97193   0.95249   1.00507
   25  H   0.97620
   26  H   0.97222
   27  H   0.98403
   28  H   0.96965
   29  C   1.06408   0.95741   0.97815   0.98637
   30  C   1.05799   0.97734   0.96819   0.98069

 **********************
 *                    *
 * JOB ENDED NORMALLY *
 *                    *
 **********************



 TOTAL JOB TIME:             2.29 SECONDS

 == MOPAC DONE ==


          MOPAC Job: "./tetraceneTraj/tetracene_2123.mop" ended normally on Feb 15, 2023, at 11:39.

rm: cannot remove ./tetraceneTraj/tetracene_2123.cim: No such file or directory
rm: cannot remove ./tetraceneTraj/tetracene_2123.end: No such file or directory
rm: cannot remove ./tetraceneTraj/tetracene_2123.log: No such file or directory
rm: cannot remove ./tetraceneTraj/tetracene_2123.temp: No such file or directory
rm: cannot remove ./tetraceneTraj/tetracene_2123.ple: No such file or directory
rm: cannot remove ./tetraceneTraj/tetracene_2123.sts: No such file or directory
