 *******************************************************************************
 ** Site#:    0         For non-commercial use only    Version 20.173L 64BITS **
 *******************************************************************************
 ** Cite this program as: MOPAC2016, Version: 20.173L, James J. P. Stewart,   **
 ** Stewart Computational Chemistry, web-site: HTTP://OpenMOPAC.net.          **
 *******************************************************************************
 **                                                                           **
 **                                MOPAC2016                                  **
 **                                                                           **
 *******************************************************************************

                              INDO CALCULATION RESULTS

 *******************************************************************************
 *  CALCULATION DONE:                                Wed Feb 15 11:29:47 2023  *
 *  INDO       - The INDO Hamiltonian to be used
 *
 *
 *
 *                 CHARGE ON SYSTEM = 0
 *
 *
 *
 *  C.I.=(N,M) - 3 DOUBLY FILLED LEVELS USED IN A C.I. INVOLVING 6 M.O.'S
 *  T=         - A TIME OF 172800.0 SECONDS REQUESTED
 *  DUMP=N     - RESTART FILE WRITTEN EVERY 7200.0 SECONDS REQUESTED
 *  RELSCF     - DEFAULT SCF CRITERION MULTIPLIED BY 0.0000
 *              (DEFAULT SCF CRITERION = 0.00010)
 *  ALLVEC     - PRINT ALL EIGENVECTORS
 **********
 *  WARNING: Specified print options may not behave as expected with INDO
 **********
 *******************************************************************************
INDO C.I.=(6,3) AllVEC CHARGE=0 RELSCF=0.000001


   ATOM   CHEMICAL          X               Y               Z
  NUMBER   SYMBOL      (ANGSTROMS)     (ANGSTROMS)     (ANGSTROMS)
 
     1       C         18.47222388  *  19.50436904  *  22.34447622  *
     2       C         19.85431368  *  19.43988617  *  22.34005712  *
     3       C         20.65772977  *  20.64530833  *  22.42779228  *
     4       C         19.98120370  *  21.95972876  *  22.39171952  *
     5       C         18.52228918  *  21.98727118  *  22.40824733  *
     6       C         17.79469212  *  20.78753706  *  22.36474748  *
     7       C         22.09504925  *  20.60188073  *  22.49942161  *
     8       C         20.72135582  *  23.16615386  *  22.43400046  *
     9       C         22.14751948  *  23.10744238  *  22.58442025  *
    10       C         22.87127837  *  21.80258697  *  22.61939186  *
    11       C         24.29195473  *  21.83597524  *  22.60073428  *
    12       H         24.86716029  *  20.86552050  *  22.53612790  *
    13       C         22.92359921  *  24.32444775  *  22.55613704  *
    14       H         22.57582292  *  19.60134543  *  22.39247762  *
    15       H         17.82396767  *  18.68163984  *  22.25472985  *
    16       H         20.29269320  *  18.40887776  *  22.28700366  *
    17       H         18.00255826  *  22.97979871  *  22.46472490  *
    18       H         16.70516678  *  20.90298392  *  22.25292007  *
    19       H         20.19187818  *  24.11786785  *  22.36419633  *
    20       H         22.35540733  *  25.29182091  *  22.50165318  *
    21       C         26.48954887  *  23.10007028  *  22.49668129  *
    22       C         27.17415385  *  24.26551724  *  22.46497048  *
    23       C         26.51181591  *  25.55223508  *  22.56764850  *
    24       C         25.11534350  *  25.57374707  *  22.63995212  *
    25       H         27.02842904  *  22.14002626  *  22.26664500  *
    26       H         28.20089938  *  24.25382662  *  22.21697587  *
    27       H         27.06545528  *  26.46363366  *  22.50529464  *
    28       H         24.62410133  *  26.51453667  *  22.77299641  *
    29       C         25.06522480  *  23.00259816  *  22.66874525  *
    30       C         24.33308475  *  24.32460854  *  22.69032268  *
 


          CARTESIAN COORDINATES 

    NO.       ATOM           X           Y           Z

     1         C         18.4722     19.5044     22.3445
     2         C         19.8543     19.4399     22.3401
     3         C         20.6577     20.6453     22.4278
     4         C         19.9812     21.9597     22.3917
     5         C         18.5223     21.9873     22.4082
     6         C         17.7947     20.7875     22.3647
     7         C         22.0950     20.6019     22.4994
     8         C         20.7214     23.1662     22.4340
     9         C         22.1475     23.1074     22.5844
    10         C         22.8713     21.8026     22.6194
    11         C         24.2920     21.8360     22.6007
    12         H         24.8672     20.8655     22.5361
    13         C         22.9236     24.3244     22.5561
    14         H         22.5758     19.6013     22.3925
    15         H         17.8240     18.6816     22.2547
    16         H         20.2927     18.4089     22.2870
    17         H         18.0026     22.9798     22.4647
    18         H         16.7052     20.9030     22.2529
    19         H         20.1919     24.1179     22.3642
    20         H         22.3554     25.2918     22.5017
    21         C         26.4895     23.1001     22.4967
    22         C         27.1742     24.2655     22.4650
    23         C         26.5118     25.5522     22.5676
    24         C         25.1153     25.5737     22.6400
    25         H         27.0284     22.1400     22.2666
    26         H         28.2009     24.2538     22.2170
    27         H         27.0655     26.4636     22.5053
    28         H         24.6241     26.5145     22.7730
    29         C         25.0652     23.0026     22.6687
    30         C         24.3331     24.3246     22.6903

           Empirical Formula: C18 H12  =    30 atoms



      MOLECULAR POINT GROUP   :   C1  


      RHF CALCULATION, NO. OF DOUBLY OCCUPIED LEVELS = 42

 WARNING: INDO only performs single-point calculations
  SCF CRITERION =    0.1000E-09

 Summary of symmetry occupancy in each shell:

 SHELL     
    1   42
    v   42
 TOTAL  84




    ROOT NO.    1           2           3           4           5           6

           -44.22115   -42.80524   -40.31201   -36.84777   -35.46306   -34.01920
  
  
  S  C   1   0.12801     0.22423    -0.26774     0.26652     0.03934     0.12367
 PX  C   1   0.03304     0.05130    -0.04413     0.01369     0.04786     0.07822
 PY  C   1   0.04396     0.07340    -0.07770     0.05560    -0.02883    -0.04480
 PZ  C   1   0.00051     0.00055     0.00024    -0.00185    -0.00034    -0.00149
  
  S  C   2   0.15480     0.23930    -0.21880     0.13525     0.16984     0.26802
 PX  C   2  -0.00791    -0.03202     0.07385    -0.10885     0.05034     0.02728
 PY  C   2   0.06094     0.08646    -0.05996     0.00214     0.01866     0.01165
 PZ  C   2   0.00324     0.00437    -0.00234    -0.00126     0.00358     0.00366
  
  S  C   3   0.26192     0.29430    -0.07087    -0.15612     0.20309     0.19505
 PX  C   3  -0.00235    -0.05687     0.13472    -0.12650     0.08933     0.05392
 PY  C   3   0.05173     0.02878     0.05845    -0.10827    -0.08071    -0.12382
 PZ  C   3  -0.00022    -0.00320     0.00756    -0.00693     0.00096    -0.00193
  
  S  C   4   0.26796     0.29815    -0.06204    -0.20176    -0.15519    -0.20959
 PX  C   4   0.04120    -0.00857     0.12261    -0.14911     0.05669     0.08272
 PY  C   4  -0.02611    -0.05862     0.08120    -0.06989    -0.11647    -0.11587
 PZ  C   4   0.00583     0.00445     0.00378    -0.00887    -0.00238    -0.00313
  
  S  C   5   0.15559     0.23657    -0.20492     0.08191    -0.19430    -0.28048
 PX  C   5   0.04875     0.05699    -0.00925    -0.06576    -0.03063    -0.03746
 PY  C   5  -0.03858    -0.07207     0.09298    -0.09419    -0.01576    -0.02146
 PZ  C   5  -0.00080    -0.00209     0.00366    -0.00429     0.00036     0.00034
  
  S  C   6   0.12610     0.21971    -0.25880     0.24231    -0.09143    -0.11213
 PX  C   6   0.05554     0.09059    -0.09033     0.05456    -0.01132    -0.00828
 PY  C   6   0.00195    -0.00075     0.01183    -0.03580    -0.05079    -0.09707
 PZ  C   6   0.00012    -0.00018     0.00116    -0.00277    -0.00052    -0.00147
  
  S  C   7   0.22271     0.13877     0.14529    -0.20132     0.33419     0.19069
 PX  C   7  -0.02991    -0.06695     0.04006     0.07860     0.00418    -0.06474
 PY  C   7   0.07526     0.02260     0.08505    -0.06260     0.01423    -0.03116
 PZ  C   7  -0.00046    -0.00296     0.00403     0.00197    -0.00141    -0.00561
  
  S  C   8   0.23114     0.14700     0.15045    -0.26391    -0.28559    -0.18355
 PX  C   8   0.04370    -0.02027     0.09217    -0.00691    -0.00658     0.08363
 PY  C   8  -0.06774    -0.06993    -0.01366     0.10181    -0.02582     0.03897
 PZ  C   8   0.00476     0.00067     0.00673    -0.00331    -0.00346     0.00299
  
  S  C   9   0.31695     0.02356     0.31016    -0.03496    -0.20951     0.01351
 PX  C   9   0.02609    -0.08077     0.03126     0.19492     0.05407     0.06015
 PY  C   9  -0.04373    -0.04507    -0.03623     0.08887    -0.14850     0.02343
 PZ  C   9  -0.00733    -0.00492    -0.00664     0.01265     0.00872     0.00349
  
  S  C  10   0.31323     0.01677     0.30769     0.01273     0.23113     0.02318
 PX  C  10  -0.02169    -0.08221    -0.01415     0.19291     0.04174    -0.06203
 PY  C  10   0.05052    -0.04007     0.04940     0.08964    -0.13368    -0.03208
 PZ  C  10  -0.01070    -0.00447    -0.00967     0.00983    -0.00919    -0.00329
  
  S  C  11   0.24039    -0.12416     0.17252     0.25845     0.26884    -0.17888
 PX  C  11  -0.04361    -0.02812    -0.09314    -0.00108    -0.01213    -0.08714
 PY  C  11   0.07123    -0.06451     0.02184     0.10152    -0.02791    -0.04044
 PZ  C  11   0.00014    -0.00114     0.00123     0.00603    -0.00161    -0.00046
  
  S  H  12   0.07151    -0.03770     0.04667     0.07486     0.13972    -0.09089
  
  S  C  13   0.23476    -0.11428     0.17133     0.19440    -0.32497     0.18353
 PX  C  13   0.03317    -0.06811    -0.03224     0.08819     0.01158     0.06882
 PY  C  13  -0.07572     0.01186    -0.08943    -0.05580     0.00443     0.04054
 PZ  C  13   0.00489    -0.00452     0.00317     0.01082    -0.00582     0.00759
  
  S  H  14   0.06608     0.04155     0.03841    -0.04809     0.15704     0.09279
  
  S  H  15   0.03565     0.06585    -0.08774     0.10559     0.01613     0.05535
  
  S  H  16   0.04375     0.06677    -0.06025     0.04046     0.08378     0.12853
  
  S  H  17   0.04585     0.06695    -0.05257     0.01054    -0.09519    -0.13632
  
  S  H  18   0.03282     0.06000    -0.07814     0.08696    -0.04059    -0.05471
  
  S  H  19   0.07193     0.04538     0.04347    -0.07942    -0.15322    -0.09414
  
  S  H  20   0.07060    -0.03127     0.04993     0.04218    -0.15960     0.08716
  
  S  C  21   0.17971    -0.25385    -0.21307    -0.08795     0.18105    -0.29488
 PX  C  21  -0.05141     0.05332     0.00171    -0.07024    -0.02134     0.02970
 PY  C  21   0.04336    -0.07530    -0.09417    -0.09440    -0.01792     0.02985
 PZ  C  21   0.00343    -0.00441    -0.00198     0.00339    -0.00088     0.00213
  
  S  C  22   0.14885    -0.23940    -0.26904    -0.24192     0.08587    -0.11413
 PX  C  22  -0.06158     0.09180     0.08511     0.04538    -0.00641     0.00184
 PY  C  22  -0.00582     0.00509    -0.00505    -0.02775    -0.05371     0.11425
 PZ  C  22   0.00333    -0.00500    -0.00441    -0.00129    -0.00266     0.00565
  
  S  C  23   0.13990    -0.22546    -0.25514    -0.24081    -0.05057     0.15799
 PX  C  23  -0.03380     0.04768     0.03721     0.00731     0.04927    -0.08955
 PY  C  23  -0.05090     0.07869     0.08011     0.05671    -0.02695     0.04615
 PZ  C  23  -0.00087     0.00168     0.00280     0.00450    -0.00373     0.00598
  
  S  C  24   0.16545    -0.23293    -0.19664    -0.10803    -0.17775     0.30866
 PX  C  24   0.01185    -0.03744    -0.07607    -0.10215     0.04595    -0.02103
 PY  C  24  -0.06325     0.08119     0.04994    -0.00515     0.01635    -0.00707
 PZ  C  24  -0.00152     0.00233     0.00276     0.00344    -0.00329     0.00468
  
  S  H  25   0.05359    -0.07357    -0.05786    -0.01642     0.09082    -0.14739
  
  S  H  26   0.04249    -0.07188    -0.08964    -0.09639     0.03988    -0.05726
  
  S  H  27   0.03787    -0.06418    -0.08068    -0.09165    -0.02329     0.07416
  
  S  H  28   0.05058    -0.06924    -0.05550    -0.03054    -0.09367     0.15601
  
  S  C  29   0.28137    -0.28087    -0.03586     0.20649     0.14985    -0.22406
 PX  C  29  -0.04048    -0.01777    -0.12946    -0.14528     0.04840    -0.08368
 PY  C  29   0.03127    -0.06220    -0.07924    -0.06232    -0.10108     0.10616
 PZ  C  29  -0.01141     0.01264     0.00524    -0.00349    -0.01095     0.01690
  
  S  C  30   0.27537    -0.27228    -0.03317     0.17280    -0.19638     0.20134
 PX  C  30   0.00486    -0.06223    -0.13375    -0.11328     0.08636    -0.05286
 PY  C  30  -0.05344     0.02188    -0.06561    -0.10514    -0.08158     0.13644
 PZ  C  30  -0.01195     0.01138     0.00093    -0.00674     0.00775    -0.00594




    ROOT NO.    7           8           9          10          11          12

           -31.79028   -31.41610   -28.91482   -28.33695   -26.67907   -26.13301
  
  
  S  C   1  -0.18374    -0.24587     0.21053     0.22866    -0.03756    -0.18306
 PX  C   1  -0.09680     0.09743     0.08844    -0.18310     0.03429    -0.05844
 PY  C   1   0.07350    -0.02369    -0.10560    -0.00771    -0.06572     0.11809
 PZ  C   1   0.00330     0.00537    -0.00573    -0.00823    -0.00143     0.00684
  
  S  C   2  -0.27516     0.07495     0.16723    -0.15689     0.12341    -0.03784
 PX  C   2   0.03904     0.13833    -0.13810    -0.09310     0.07792     0.17865
 PY  C   2   0.02313     0.07922    -0.07979    -0.09290    -0.08623     0.11017
 PZ  C   2  -0.00044     0.00661    -0.00565    -0.00669    -0.00088     0.00874
  
  S  C   3  -0.06528     0.26555    -0.11997    -0.12262    -0.08243     0.18803
 PX  C   3   0.04422    -0.03244    -0.11380     0.17608     0.08434     0.06166
 PY  C   3   0.09076    -0.00336     0.01753     0.08876    -0.20391    -0.08871
 PZ  C   3   0.00592    -0.00536    -0.00552     0.01303    -0.00189    -0.00140
  
  S  C   4   0.09854     0.23001     0.10486    -0.11918    -0.11361    -0.17880
 PX  C   4  -0.11141    -0.00379     0.06196     0.16000    -0.11925     0.05970
 PY  C   4   0.00062    -0.04186     0.13304     0.08734     0.16326    -0.13571
 PZ  C   4   0.00039     0.00162     0.00219     0.00457    -0.00640    -0.00163
  
  S  C   5   0.29186     0.01982    -0.17954    -0.12406     0.13005     0.01437
 PX  C   5  -0.01850     0.13724     0.13062    -0.13533    -0.04956    -0.19127
 PY  C   5  -0.01703     0.06609     0.08462    -0.02840     0.10207    -0.12103
 PZ  C   5  -0.00148     0.00330     0.00309    -0.00184     0.00084    -0.00392
  
  S  C   6   0.15866    -0.26533    -0.20229     0.24185    -0.01187     0.20278
 PX  C   6   0.00147     0.02684     0.02187    -0.09779    -0.04562    -0.05273
 PY  C   6   0.13693     0.07095    -0.14982    -0.12558     0.07874     0.11184
 PZ  C   6   0.00185     0.00660    -0.00109    -0.01051     0.00038    -0.00106
  
  S  C   7   0.14120    -0.00148    -0.22823     0.15260     0.19618     0.00699
 PX  C   7   0.10655    -0.15443     0.05133     0.01953     0.10228    -0.19672
 PY  C   7   0.05861    -0.09057     0.02120     0.08903    -0.16369    -0.09668
 PZ  C   7   0.00763    -0.01253     0.00425     0.00565    -0.00715    -0.01582
  
  S  C   8  -0.15620    -0.00588     0.25328     0.11781     0.16439    -0.02018
 PX  C   8  -0.13061    -0.13580    -0.04938     0.08090    -0.06472     0.21522
 PY  C   8  -0.06703    -0.06717    -0.02953    -0.03734     0.18780     0.10105
 PZ  C   8  -0.00877    -0.00943    -0.00227     0.00667    -0.00603     0.01442
  
  S  C   9  -0.22392    -0.23659     0.00052     0.00324    -0.08780     0.19097
 PX  C   9   0.06968    -0.02512    -0.12173    -0.17534    -0.10647    -0.05965
 PY  C   9  -0.13491     0.02964    -0.04869    -0.09509     0.22094     0.11511
 PZ  C   9   0.01160     0.00448    -0.00833    -0.01127    -0.00998    -0.01090
  
  S  C  10   0.20441    -0.26372    -0.01354     0.01051    -0.07476    -0.18636
 PX  C  10   0.07726    -0.00097     0.10217    -0.18482     0.12210    -0.06901
 PY  C  10  -0.11598    -0.02491     0.04967    -0.10990    -0.21847     0.10749
 PZ  C  10  -0.00495     0.00678     0.00504    -0.01129    -0.00352     0.00352
  
  S  C  11   0.17941    -0.03046     0.23901    -0.13965     0.16961     0.00418
 PX  C  11  -0.09861     0.16225     0.07078     0.07536     0.07087     0.20188
 PY  C  11  -0.05378     0.07797     0.02568    -0.04406    -0.17459     0.10730
 PZ  C  11   0.00151     0.00216     0.00448    -0.00724    -0.00847     0.00242
  
  S  H  12   0.08075    -0.00567     0.11805    -0.02146     0.20523     0.00835
  
  S  C  13  -0.17786     0.00314    -0.24226    -0.11932     0.17251    -0.00440
 PX  C  13   0.11904     0.14172    -0.06615     0.01026    -0.11568    -0.20601
 PY  C  13   0.06068     0.08826    -0.02304     0.09094     0.14724    -0.11013
 PZ  C  13   0.00305     0.00607    -0.00929    -0.00655    -0.00685    -0.01120
  
  S  H  14   0.06178     0.00841    -0.10470     0.03217     0.22151     0.00494
  
  S  H  15  -0.09248    -0.14747     0.12522     0.18739    -0.00175    -0.13069
  
  S  H  16  -0.13389     0.02637     0.09040    -0.04873     0.13198    -0.03821
  
  S  H  17   0.13452     0.00685    -0.07549    -0.03920     0.13922    -0.00497
  
  S  H  18   0.08401    -0.14065    -0.12166     0.16939     0.02604     0.14178
  
  S  H  19  -0.07207     0.00155     0.12001     0.01641     0.21168    -0.02088
  
  S  H  20  -0.08879     0.00429    -0.10325    -0.01450     0.20754     0.00373
  
  S  C  21  -0.26338     0.05317    -0.14329     0.14520     0.10983    -0.01635
 PX  C  21  -0.04474    -0.15070    -0.13794    -0.13140     0.04914    -0.18000
 PY  C  21  -0.02152    -0.07835    -0.08522    -0.03911    -0.10418    -0.11279
 PZ  C  21   0.00805     0.01400     0.01554     0.01535    -0.01332     0.01873
  
  S  C  22  -0.17210    -0.26112    -0.19574    -0.22394    -0.01488    -0.17502
 PX  C  22  -0.01054    -0.03896    -0.03652    -0.10265     0.04838    -0.05779
 PY  C  22   0.13115    -0.08253     0.13403    -0.13420    -0.06609     0.11305
 PZ  C  22   0.00919     0.00878     0.01392     0.01597    -0.00945     0.01676
  
  S  C  23   0.17355    -0.25197     0.20355    -0.22453    -0.02108     0.20139
 PX  C  23  -0.10539    -0.08732    -0.09663    -0.16020    -0.02735    -0.04969
 PY  C  23   0.07087     0.02289     0.09799    -0.00548     0.07137     0.10974
 PZ  C  23   0.00845     0.01317     0.00902     0.01988     0.00288     0.00576
  
  S  C  24   0.27601     0.05978     0.16084     0.14457     0.11030     0.01064
 PX  C  24   0.03707    -0.13427     0.13856    -0.09480    -0.06617     0.19096
 PY  C  24   0.02220    -0.08093     0.07868    -0.08507     0.09113     0.10746
 PZ  C  24   0.00445     0.00855     0.00056     0.01133     0.00660    -0.00602
  
  S  H  25  -0.12585     0.02061    -0.06357     0.05102     0.12977    -0.00401
  
  S  H  26  -0.09434    -0.15315    -0.12357    -0.17445     0.02241    -0.12886
  
  S  H  27   0.08977    -0.14076     0.12270    -0.16601     0.01668     0.14581
  
  S  H  28   0.13734     0.02554     0.08210     0.05651     0.12900     0.00930
  
  S  C  29  -0.04628     0.25130     0.13125     0.10584    -0.08513     0.18506
 PX  C  29  -0.10307     0.02418    -0.03801     0.17372     0.10892     0.05461
 PY  C  29  -0.01626     0.04311    -0.12900     0.09255    -0.16819    -0.11301
 PZ  C  29   0.01021    -0.00821    -0.00108    -0.00889    -0.00957    -0.00980
  
  S  C  30   0.06816     0.25620    -0.13277     0.11167    -0.09658    -0.19515
 PX  C  30   0.06042     0.03813     0.13317     0.15550    -0.08190     0.06616
 PY  C  30   0.07884    -0.00243    -0.01980     0.09704     0.17625    -0.10908
 PZ  C  30   0.00244    -0.00710     0.01029    -0.00028    -0.00038     0.00747




    ROOT NO.   13          14          15          16          17          18

           -25.09402   -24.05930   -22.75775   -21.61745   -20.65718   -19.36317
  
  
  S  C   1  -0.01710    -0.12621    -0.01349    -0.15556    -0.04210    -0.01111
 PX  C   1   0.02840     0.25093     0.01223     0.03078     0.22721     0.18502
 PY  C   1  -0.13173     0.00992    -0.19292     0.10472    -0.12034     0.21731
 PZ  C   1  -0.00504     0.00841    -0.00931     0.00679    -0.00063     0.01928
  
  S  C   2   0.15630     0.18983     0.12551     0.12453     0.11793     0.03248
 PX  C   2   0.08272    -0.04149     0.06011     0.15540    -0.14766    -0.13913
 PY  C   2  -0.16450    -0.00287    -0.20577     0.06638    -0.16559     0.08571
 PZ  C   2  -0.00416     0.00115    -0.00825     0.00514    -0.00974     0.00874
  
  S  C   3  -0.09670    -0.10781    -0.01064     0.09890    -0.07731    -0.15795
 PX  C   3   0.14870    -0.16242     0.14858    -0.09115    -0.01475    -0.03843
 PY  C   3  -0.19293    -0.08881    -0.02133    -0.11336     0.15391    -0.09298
 PZ  C   3   0.00245    -0.00528     0.00705    -0.01363     0.00931     0.00604
  
  S  C   4  -0.11390    -0.10442    -0.01562    -0.09922    -0.03720    -0.14374
 PX  C   4  -0.07345    -0.15044     0.06996     0.18635     0.10572    -0.05440
 PY  C   4   0.21992    -0.07119     0.13033     0.01490    -0.07989     0.05584
 PZ  C   4  -0.00273    -0.00029     0.00633    -0.00277     0.01206     0.00038
  
  S  C   5   0.15648     0.17108     0.12065    -0.12512     0.11019    -0.01726
 PX  C   5  -0.09670    -0.02491    -0.13616    -0.18299    -0.17671    -0.01775
 PY  C   5   0.15628    -0.03631     0.15770    -0.10001    -0.03210    -0.17851
 PZ  C   5   0.00281     0.00164     0.00532    -0.00586     0.00479    -0.00297
  
  S  C   6  -0.00593    -0.11221    -0.00519     0.17092    -0.04230     0.03714
 PX  C   6  -0.10097     0.12379    -0.16071    -0.12040     0.00858     0.22415
 PY  C   6   0.10210     0.19240     0.12166     0.07391     0.24014     0.02323
 PZ  C   6  -0.00131     0.01320    -0.00365    -0.00651     0.00925     0.01506
  
  S  C   7   0.13290    -0.10815    -0.07068    -0.20602    -0.05449     0.14072
 PX  C   7  -0.00007     0.14960    -0.17420    -0.08522     0.04629     0.17743
 PY  C   7  -0.11832     0.08920     0.04091    -0.01931     0.22841    -0.00199
 PZ  C   7  -0.00784     0.01601    -0.00360    -0.00636     0.02195     0.01220
  
  S  C   8   0.11724    -0.08595    -0.06743     0.20697    -0.07542     0.17075
 PX  C   8  -0.09019     0.14377    -0.05451     0.07721     0.18105     0.04676
 PY  C   8   0.07324     0.07471    -0.16461     0.03409    -0.11635     0.12980
 PZ  C   8  -0.00604     0.01448     0.00075     0.00244     0.02070     0.00523
  
  S  C   9  -0.00507     0.22492     0.03887    -0.00060    -0.00589    -0.00987
 PX  C   9   0.01584     0.04467     0.11026    -0.18728    -0.16743    -0.14280
 PY  C   9   0.00872    -0.06625    -0.20896    -0.08803    -0.08559    -0.08763
 PZ  C   9   0.00083     0.00076     0.01560    -0.01309    -0.00872    -0.00454
  
  S  C  10  -0.01096     0.22759     0.01337    -0.01418     0.00481     0.02229
 PX  C  10   0.00259    -0.02989    -0.12285     0.16620    -0.18220    -0.14610
 PY  C  10   0.00738     0.07384     0.21766     0.08870    -0.11787    -0.09367
 PZ  C  10   0.00164    -0.00259     0.00587     0.00878    -0.00955    -0.00472
  
  S  C  11  -0.12186    -0.10069    -0.07592     0.21750     0.04519    -0.15947
 PX  C  11  -0.07755    -0.17075     0.05520    -0.04026     0.19640     0.04571
 PY  C  11   0.08900    -0.07556     0.17399    -0.04500    -0.10689     0.12971
 PZ  C  11   0.00663    -0.00691     0.00555     0.00855    -0.00853     0.00472
  
  S  H  12  -0.13692    -0.06351    -0.11611     0.11211     0.15216    -0.14264
  
  S  C  13  -0.11531    -0.10560    -0.07343    -0.20860     0.08647    -0.15111
 PX  C  13   0.01909    -0.15346     0.16903     0.06445     0.02365     0.16448
 PY  C  13  -0.11554    -0.09709    -0.05519     0.03691     0.21994    -0.01112
 PZ  C  13  -0.00074    -0.00971     0.01650    -0.00128    -0.00661     0.01209
  
  S  H  14   0.13708    -0.06414    -0.10624    -0.11096    -0.15188     0.12688
  
  S  H  15   0.04427    -0.17276     0.08916    -0.15299    -0.05585    -0.22183
  
  S  H  16   0.19613     0.08626     0.20308     0.05902     0.12424    -0.08049
  
  S  H  17   0.19717     0.07289     0.19227    -0.06175     0.08930    -0.11189
  
  S  H  18   0.06597    -0.12441     0.11180     0.17802    -0.01212    -0.14613
  
  S  H  19   0.13081    -0.04743    -0.11036     0.09510    -0.16548     0.15029
  
  S  H  20  -0.12703    -0.05755    -0.12539    -0.09812     0.15974    -0.13928
  
  S  C  21  -0.16893     0.16958     0.10825    -0.14075    -0.09607    -0.00901
 PX  C  21  -0.12061    -0.00060     0.13798     0.14544    -0.18391    -0.01613
 PY  C  21   0.16099     0.04291    -0.15564     0.12195    -0.05389    -0.15767
 PZ  C  21   0.02913     0.00437    -0.03541    -0.01249     0.02536    -0.01504
  
  S  C  22   0.01214    -0.12281    -0.00869     0.16312     0.02890    -0.01795
 PX  C  22  -0.10599    -0.15123     0.16538     0.09977     0.01307     0.23616
 PY  C  22   0.13107    -0.18453    -0.11938    -0.03686     0.24426     0.02508
 PZ  C  22   0.02159     0.02047    -0.03254    -0.02223     0.00735    -0.04081
  
  S  C  23   0.04075    -0.11910    -0.01131    -0.17195     0.06435     0.00172
 PX  C  23   0.04597    -0.23249    -0.00811    -0.01934     0.21332     0.16785
 PY  C  23  -0.14010    -0.01632     0.19997    -0.14970    -0.10106     0.20194
 PZ  C  23  -0.00484     0.02590     0.00125    -0.00048    -0.02277    -0.01490
  
  S  C  24  -0.17674     0.16757     0.11336     0.12502    -0.12494    -0.02561
 PX  C  24   0.10152     0.04921    -0.06562    -0.16818    -0.10944    -0.14270
 PY  C  24  -0.17227    -0.00495     0.20742    -0.09574    -0.15059     0.07710
 PZ  C  24  -0.01250     0.00907     0.01245     0.01607    -0.00938     0.01358
  
  S  H  25  -0.21484     0.05888     0.18868    -0.08698    -0.07784     0.08509
  
  S  H  26  -0.06232    -0.16214     0.10923     0.15817     0.02241     0.17104
  
  S  H  27  -0.03760    -0.15019     0.10440    -0.18725     0.05347     0.19601
  
  S  H  28  -0.22046     0.07060     0.19928     0.05819    -0.12167     0.08155
  
  S  C  29   0.11596    -0.09632    -0.00209    -0.08428     0.05871     0.14226
 PX  C  29  -0.09088     0.16119    -0.06712    -0.17293     0.11670    -0.06261
 PY  C  29   0.22384     0.10168    -0.12116    -0.03413    -0.08257     0.06227
 PZ  C  29   0.01342    -0.00422    -0.00675     0.01849    -0.00817     0.00355
  
  S  C  30   0.11065    -0.10717    -0.01230     0.09656     0.06179     0.15427
 PX  C  30   0.14240     0.16569    -0.14289     0.11606    -0.03015    -0.01236
 PY  C  30  -0.20188     0.07265    -0.00087     0.13441     0.13221    -0.09339
 PZ  C  30  -0.00009     0.00778     0.00295     0.00879    -0.01131     0.00838




    ROOT NO.   19          20          21          22          23          24

           -18.49769   -17.27639   -16.89656   -16.51104   -16.11559   -15.25019
  
  
  S  C   1  -0.14203    -0.02978    -0.07309    -0.08989    -0.05216    -0.06376
 PX  C   1   0.05364     0.16859    -0.04246    -0.00449    -0.19081    -0.09736
 PY  C   1   0.10596    -0.15124     0.09166     0.08622    -0.18726    -0.08886
 PZ  C   1   0.00195    -0.01278    -0.00308    -0.00269    -0.02797    -0.02587
  
  S  C   2   0.14549    -0.00912     0.03137     0.06677    -0.00160    -0.02791
 PX  C   2   0.10921    -0.17921     0.09733     0.07951     0.20286     0.09244
 PY  C   2  -0.01257    -0.19677    -0.17219    -0.14157     0.01775    -0.25099
 PZ  C   2  -0.00536    -0.02434    -0.01928    -0.01343    -0.01508    -0.03391
  
  S  C   3  -0.00322    -0.03807    -0.20004    -0.10440     0.07312     0.00014
 PX  C   3  -0.15277    -0.01989    -0.02951    -0.02373    -0.22129     0.11921
 PY  C   3  -0.04556     0.30097    -0.01709     0.00176     0.02911     0.12496
 PZ  C   3  -0.02041    -0.01011    -0.02142    -0.00474    -0.02976    -0.00952
  
  S  C   4   0.06221     0.11429     0.16802     0.11072     0.09159     0.02851
 PX  C   4   0.15469     0.17669    -0.07326    -0.06621    -0.08721    -0.15819
 PY  C   4   0.09430    -0.13554     0.15473     0.08019    -0.18674    -0.13291
 PZ  C   4  -0.01430    -0.00787    -0.00385    -0.00950    -0.00739    -0.03516
  
  S  C   5  -0.18797    -0.03093    -0.03302    -0.07909     0.01160     0.00512
 PX  C   5  -0.03347    -0.11504     0.17788     0.15871     0.11460     0.15094
 PY  C   5  -0.07223    -0.15855    -0.16655    -0.10896     0.10238    -0.25507
 PZ  C   5  -0.01519    -0.01180    -0.01533    -0.01793    -0.00605    -0.03656
  
  S  C   6   0.16123     0.01739     0.09215     0.10003    -0.05468     0.04483
 PX  C   6  -0.20241    -0.05489     0.01405    -0.08122    -0.20620     0.05099
 PY  C   6  -0.00023     0.23132    -0.02562    -0.03640    -0.01629     0.11589
 PZ  C   6  -0.02052    -0.00472    -0.00856    -0.01756    -0.02467    -0.01698
  
  S  C   7  -0.11654     0.07213     0.03658     0.02593    -0.08571     0.02299
 PX  C   7   0.11022     0.10192     0.13880     0.08777     0.15883    -0.09828
 PY  C   7   0.10047    -0.03068    -0.30202     0.02505    -0.00785     0.13948
 PZ  C   7   0.00931    -0.01341    -0.04110     0.01161    -0.00251    -0.00354
  
  S  C   8   0.09526     0.01631    -0.03319    -0.04984    -0.06674    -0.01167
 PX  C   8  -0.19621     0.08786     0.10061    -0.11594     0.16425    -0.08333
 PY  C   8  -0.05704    -0.07244    -0.30368    -0.06552     0.05689     0.25729
 PZ  C   8  -0.02967    -0.00564     0.01768    -0.01332     0.01593    -0.04482
  
  S  C   9  -0.15864    -0.09288     0.18993    -0.05573     0.09326    -0.05251
 PX  C   9   0.05768    -0.11832    -0.00042     0.10212    -0.07841     0.09148
 PY  C   9  -0.05941     0.24181     0.00589    -0.04636     0.12676     0.01503
 PZ  C   9  -0.00041    -0.02676    -0.00256     0.01312    -0.00902    -0.02897
  
  S  C  10   0.13879    -0.14892    -0.13652     0.09480     0.04948     0.05886
 PX  C  10   0.09449     0.11290    -0.04531    -0.05382     0.10939    -0.03666
 PY  C  10  -0.06304    -0.21631     0.13148    -0.00463    -0.08738    -0.02623
 PZ  C  10  -0.00592    -0.01451    -0.01631     0.01232    -0.00552    -0.02541
  
  S  C  11  -0.06627     0.03174     0.00240    -0.06531    -0.06338    -0.01282
 PX  C  11  -0.20962    -0.03062     0.13066    -0.02413    -0.16028     0.00495
 PY  C  11  -0.09183     0.01313    -0.12404     0.22674    -0.13664     0.12462
 PZ  C  11  -0.01405     0.00719    -0.02801     0.03306    -0.00651    -0.02515
  
  S  H  12  -0.04982    -0.00389     0.16245    -0.22170    -0.00199    -0.09521
  
  S  C  13   0.10449     0.04623    -0.00808     0.05863    -0.09371    -0.02541
 PX  C  13   0.14546    -0.05414     0.08756    -0.19309    -0.14325    -0.08749
 PY  C  13   0.10157    -0.07300    -0.17417     0.16870    -0.08813    -0.00217
 PZ  C  13   0.00137    -0.00357     0.01402    -0.01318     0.00036    -0.04290
  
  S  H  14  -0.09028     0.10032     0.31225     0.02563     0.01959    -0.13438
  
  S  H  15  -0.16414    -0.00137    -0.07748    -0.10198     0.20226     0.07884
  
  S  H  16   0.11329     0.08861     0.19150     0.17261     0.06007     0.22439
  
  S  H  17  -0.13125    -0.09304    -0.22245    -0.18738     0.03262    -0.25588
  
  S  H  18   0.24238     0.07006     0.03053     0.11602     0.14630    -0.01594
  
  S  H  19   0.08236    -0.08090    -0.29723    -0.02550    -0.06685     0.22206
  
  S  H  20   0.06320    -0.00398    -0.18493     0.24512    -0.05627     0.03083
  
  S  C  21   0.17115    -0.02777    -0.00152    -0.05546     0.00383    -0.03415
 PX  C  21  -0.01386     0.17043     0.01162    -0.21712    -0.14577     0.09250
 PY  C  21  -0.07767     0.14717    -0.07734     0.15211    -0.11959    -0.25312
 PZ  C  21  -0.00631    -0.01386    -0.01855     0.07510     0.01465    -0.09734
  
  S  C  22  -0.14856     0.01049    -0.00968     0.11485    -0.04759    -0.04962
 PX  C  22  -0.16877     0.03920    -0.02263     0.04775     0.22515     0.12087
 PY  C  22  -0.02612    -0.24440     0.07486     0.05216     0.04509     0.11563
 PZ  C  22   0.03118    -0.01692    -0.00095     0.01507    -0.03398    -0.07375
  
  S  C  23   0.15443    -0.03093     0.02243    -0.10857    -0.05414     0.03491
 PX  C  23   0.06073    -0.18710    -0.00105     0.04170     0.20584    -0.12829
 PY  C  23   0.14902     0.14514    -0.07266    -0.11521     0.17962    -0.07010
 PZ  C  23  -0.00501     0.01873    -0.00594     0.01183    -0.00822    -0.03388
  
  S  C  24  -0.15981     0.00346     0.01863     0.05592     0.00267     0.05752
 PX  C  24   0.10797     0.17962    -0.00037    -0.11634    -0.22305     0.10666
 PY  C  24  -0.02813     0.15260    -0.10378     0.24809    -0.03033    -0.23217
 PZ  C  24  -0.02723    -0.00009    -0.00857     0.03683     0.03724    -0.05128
  
  S  H  25   0.13064    -0.04953     0.07013    -0.25013     0.02474     0.23393
  
  S  H  26  -0.21137     0.04125    -0.02282     0.09316     0.17002     0.09347
  
  S  H  27   0.20588     0.00440    -0.04048    -0.12059     0.19399    -0.09288
  
  S  H  28  -0.14129     0.04228    -0.07212     0.27043     0.06842    -0.20040
  
  S  C  29  -0.07843     0.05003    -0.09683     0.20045     0.06558    -0.03030
 PX  C  29   0.13798    -0.21821     0.03987     0.08694     0.12251    -0.10197
 PY  C  29   0.11918     0.14162    -0.04453    -0.09549     0.22569    -0.07437
 PZ  C  29  -0.01952     0.02582    -0.02022     0.02120     0.01354    -0.05055
  
  S  C  30   0.04314     0.01335     0.05242    -0.21901     0.09576     0.02931
 PX  C  30  -0.16352     0.02024    -0.04823     0.05019     0.22521     0.11805
 PY  C  30  -0.05211    -0.27650     0.10708    -0.04749    -0.01265     0.10163
 PZ  C  30  -0.02461     0.01118    -0.01138     0.02437     0.03339    -0.04359




    ROOT NO.   25          26          27          28          29          30

           -14.91328   -14.80402   -14.76146   -14.41031   -13.82226   -13.42089
  
  
  S  C   1  -0.00505     0.02379    -0.04192     0.00548     0.05535     0.00209
 PX  C   1  -0.25288     0.00489    -0.05080     0.08932     0.14889    -0.08022
 PY  C   1   0.01781     0.08154     0.20422    -0.08159     0.16341    -0.02135
 PZ  C   1   0.03295     0.00375     0.05668     0.11063     0.04141     0.23383
  
  S  C   2  -0.04065     0.02599     0.09422    -0.01715    -0.02568    -0.00928
 PX  C   2   0.23074     0.00868     0.11509    -0.09984    -0.18514     0.07300
 PY  C   2  -0.15505     0.11680    -0.01369     0.01445    -0.11018    -0.03410
 PZ  C   2   0.03491     0.00029     0.06408     0.14929     0.02269     0.24978
  
  S  C   3  -0.01435    -0.04129    -0.03770     0.01080     0.01274     0.02263
 PX  C   3   0.13630    -0.08843    -0.00770    -0.05592     0.29567    -0.04719
 PY  C   3  -0.06618    -0.09550    -0.12274     0.06206     0.05788    -0.00211
 PZ  C   3   0.07379    -0.02873     0.10715     0.23823     0.03714     0.28608
  
  S  C   4  -0.04503     0.01446    -0.01200     0.03085     0.01858    -0.01058
 PX  C   4  -0.10511     0.05660    -0.13272     0.03958     0.13823     0.06074
 PY  C   4   0.04095     0.10388     0.08694    -0.04413     0.17623     0.00236
 PZ  C   4   0.07774    -0.00728     0.10103     0.24054     0.00963     0.29470
  
  S  C   5   0.10917     0.01406    -0.01245    -0.03689    -0.03050     0.00687
 PX  C   5   0.04251    -0.03828     0.15581    -0.01581    -0.10748    -0.06518
 PY  C   5  -0.17721     0.15561     0.15956    -0.01609    -0.03054    -0.04225
 PZ  C   5   0.04558     0.00734     0.06172     0.14110     0.01747     0.24924
  
  S  C   6   0.01156    -0.02121     0.04162    -0.00277     0.06253     0.01153
 PX  C   6   0.28440    -0.01728    -0.07697    -0.10026     0.12520     0.06132
 PY  C   6   0.01356    -0.10934    -0.23930     0.06569    -0.02759     0.01649
 PZ  C   6   0.06000    -0.00048     0.03250     0.10352     0.03366     0.23972
  
  S  C   7  -0.06059    -0.00960     0.00507     0.02759    -0.00263    -0.02298
 PX  C   7  -0.16414     0.09390     0.03392     0.03341    -0.29538     0.01287
 PY  C   7  -0.01193    -0.11640     0.28685    -0.11867    -0.05156    -0.00411
 PZ  C   7   0.05506    -0.03488     0.12858     0.21989    -0.01166     0.14085
  
  S  C   8   0.03506    -0.02269    -0.06862     0.00287    -0.03593     0.03573
 PX  C   8   0.16691     0.13633    -0.01662    -0.04446    -0.20696     0.00603
 PY  C   8  -0.03182    -0.22845    -0.02867     0.01486    -0.15058    -0.03083
 PZ  C   8   0.08624    -0.00038     0.09265     0.22654    -0.02363     0.15347
  
  S  C   9  -0.01487    -0.02977     0.02237     0.00827    -0.00675    -0.02786
 PX  C   9  -0.21532    -0.16002     0.01553     0.00075     0.21705    -0.04712
 PY  C   9  -0.12221    -0.09161     0.05686     0.03556     0.12695     0.05491
 PZ  C   9   0.06600    -0.05490     0.10425     0.29782     0.00931     0.01390
  
  S  C  10   0.01868     0.03095     0.00063     0.01548    -0.01946     0.00589
 PX  C  10   0.10609     0.09576    -0.26858     0.06081     0.19012     0.08657
 PY  C  10   0.05696     0.02713    -0.18350     0.01409     0.10578    -0.05794
 PZ  C  10   0.08891    -0.03680     0.09382     0.30567     0.00879     0.00573
  
  S  C  11   0.08198     0.00319    -0.01783    -0.01610     0.03070    -0.01392
 PX  C  11  -0.09102    -0.10951     0.24990    -0.05814    -0.17392    -0.09578
 PY  C  11  -0.02531     0.23256    -0.16692     0.10350    -0.18825    -0.01557
 PZ  C  11   0.08030    -0.02055     0.06090     0.25282    -0.00628    -0.13980
  
  S  H  12   0.00472    -0.22533     0.22232    -0.12234     0.08654    -0.03218
  
  S  C  13  -0.03821     0.01384     0.05399    -0.02054     0.02727     0.02634
 PX  C  13   0.01824    -0.17458    -0.04397    -0.04971    -0.25417     0.08559
 PY  C  13   0.23160     0.30280    -0.04389    -0.00253    -0.09660    -0.04841
 PZ  C  13   0.04699    -0.08226     0.06932     0.23097    -0.00444    -0.10780
  
  S  H  14  -0.08081     0.12231    -0.21482     0.09753    -0.07889    -0.01542
  
  S  H  15   0.11175    -0.04669    -0.14367     0.00681    -0.18443     0.04280
  
  S  H  16   0.19056    -0.07800     0.09115    -0.06212    -0.00057     0.04237
  
  S  H  17  -0.10604     0.13998     0.05823    -0.01812     0.00242     0.00723
  
  S  H  18  -0.25849    -0.00253     0.06893     0.08711    -0.09104    -0.07509
  
  S  H  19  -0.08040    -0.23260    -0.05202     0.01625    -0.04606    -0.02258
  
  S  H  20   0.14738     0.31189    -0.00072    -0.00084     0.05215    -0.05851
  
  S  C  21   0.04692    -0.03430    -0.08890     0.02265     0.00537     0.00117
 PX  C  21   0.09636     0.11270     0.05800     0.07188    -0.12875    -0.14474
 PY  C  21   0.18718    -0.14095     0.04028    -0.15034    -0.07535    -0.02634
 PZ  C  21   0.06711    -0.09968     0.01880     0.13655     0.01598    -0.23199
  
  S  C  22  -0.02072    -0.05670     0.00673    -0.01119    -0.04708     0.00226
 PX  C  22  -0.11819     0.12734     0.17375    -0.00655     0.17911    -0.00519
 PY  C  22  -0.20474    -0.01577    -0.13400     0.10898     0.01161     0.10071
 PZ  C  22   0.06995    -0.09091    -0.02972     0.13171    -0.03167    -0.23001
  
  S  C  23   0.02257     0.03262    -0.01899     0.03406    -0.04821    -0.02050
 PX  C  23   0.10342    -0.15744    -0.21335     0.02642     0.06069    -0.04435
 PY  C  23   0.19941     0.05479     0.10649    -0.09980     0.11728    -0.08876
 PZ  C  23   0.03675    -0.04516     0.02661     0.11548     0.00438    -0.20950
  
  S  C  24  -0.09269     0.01047     0.00417     0.01553     0.03227     0.01818
 PX  C  24  -0.05251     0.15060     0.20772    -0.00577    -0.09295     0.01473
 PY  C  24   0.00832    -0.19530    -0.01334    -0.08167    -0.09926     0.12201
 PZ  C  24   0.04049    -0.07465     0.01265     0.14661     0.03103    -0.21239
  
  S  H  25  -0.09407     0.15395    -0.04594     0.13228     0.00808    -0.00055
  
  S  H  26  -0.12615     0.10218     0.16453    -0.04129     0.14881     0.04538
  
  S  H  27   0.21193    -0.01169    -0.02953    -0.05471     0.09952    -0.09339
  
  S  H  28  -0.00973    -0.21144    -0.09568    -0.03954    -0.01631     0.07954
  
  S  C  29  -0.00146     0.05185     0.03636    -0.00211    -0.02164    -0.00446
 PX  C  29  -0.05626    -0.16581    -0.08884    -0.01481     0.14368     0.07687
 PY  C  29   0.06751    -0.03623     0.09492    -0.08746     0.18927     0.05083
 PZ  C  29   0.09155    -0.05189     0.07822     0.24845     0.01432    -0.27823
  
  S  C  30   0.04292    -0.01775     0.05932     0.00730    -0.00366    -0.04378
 PX  C  30   0.01663     0.18338     0.03324     0.01579     0.24457    -0.08626
 PY  C  30  -0.04156     0.01577    -0.14112     0.08392     0.03142    -0.06818
 PZ  C  30   0.06653    -0.06257     0.06431     0.24527     0.03568    -0.25486




    ROOT NO.   31          32          33          34          35          36

           -13.14078   -12.94095   -12.17546   -11.80719   -11.66661   -11.53228
  
  
  S  C   1  -0.00017     0.00427    -0.00765     0.00305    -0.00156     0.01487
 PX  C   1   0.17961    -0.08803    -0.11674     0.05643    -0.02353     0.13603
 PY  C   1  -0.15806    -0.23034     0.19660     0.07625    -0.04521     0.02238
 PZ  C   1   0.06158    -0.05567     0.03817    -0.30938     0.00180     0.08954
  
  S  C   2  -0.01501    -0.01472    -0.03040    -0.01341     0.02490    -0.02429
 PX  C   2  -0.17689     0.09932     0.07980    -0.06852     0.04118    -0.15543
 PY  C   2   0.07736     0.18248    -0.21665    -0.04681     0.07419    -0.06780
 PZ  C   2   0.09306    -0.02927    -0.01956    -0.24652     0.02059     0.06874
  
  S  C   3  -0.01087     0.02229     0.00517     0.00585     0.00264     0.00921
 PX  C   3   0.01948    -0.10759    -0.16171     0.09861     0.01262     0.19620
 PY  C   3  -0.00640    -0.15630     0.30396     0.05730    -0.12630     0.04101
 PZ  C   3   0.11427    -0.05046    -0.03232    -0.06866     0.01687     0.03350
  
  S  C   4   0.02258    -0.02539     0.00650    -0.00899     0.00707    -0.01877
 PX  C   4  -0.14902     0.10299     0.20541    -0.06492     0.01450    -0.24396
 PY  C   4  -0.03082     0.11728    -0.28173    -0.05399     0.14429    -0.08403
 PZ  C   4   0.09517    -0.04578     0.01914    -0.04989    -0.02853     0.02928
  
  S  C   5  -0.03264     0.01189    -0.03591     0.01211     0.00964     0.03380
 PX  C   5   0.16025    -0.13970    -0.17749     0.05772    -0.02211     0.23065
 PY  C   5  -0.06058    -0.21666     0.16028     0.06460    -0.05688     0.06662
 PZ  C   5   0.05271    -0.05229     0.07028    -0.21063    -0.02625     0.05613
  
  S  C   6  -0.01529    -0.02689     0.02124    -0.01070     0.00101    -0.01203
 PX  C   6  -0.22178     0.11280     0.11348    -0.01314     0.03020    -0.16150
 PY  C   6   0.11458     0.26088    -0.18801    -0.06246     0.05939    -0.07894
 PZ  C   6   0.03580    -0.02807     0.06693    -0.30216    -0.00826     0.05849
  
  S  C   7   0.02939    -0.06192    -0.04228     0.00414     0.04555     0.00382
 PX  C   7  -0.03494     0.06163     0.13982    -0.10133     0.01536    -0.19761
 PY  C   7  -0.13307    -0.07558    -0.15157    -0.05026     0.16116    -0.05762
 PZ  C   7   0.04630     0.00089    -0.04574     0.12133     0.05486    -0.08765
  
  S  C   8  -0.04217     0.06008    -0.02369     0.00571     0.03687     0.01599
 PX  C   8  -0.07340    -0.12533    -0.06488     0.08978     0.01506     0.24752
 PY  C   8   0.11531    -0.07207     0.16425     0.04204    -0.13419     0.10181
 PZ  C   8   0.04885    -0.01403    -0.00622     0.16281    -0.03555    -0.01505
  
  S  C   9   0.06499    -0.02205     0.00091     0.01865    -0.01254    -0.00000
 PX  C   9   0.10937     0.07581     0.09207    -0.13149    -0.02988    -0.23806
 PY  C   9  -0.18266    -0.15725    -0.09550     0.00655     0.28577    -0.08336
 PZ  C   9   0.02763     0.06565     0.01596     0.30499    -0.05138    -0.14248
  
  S  C  10  -0.00541     0.05497     0.00575     0.01028     0.00787    -0.00389
 PX  C  10  -0.13485    -0.05053    -0.02774     0.10907     0.09284     0.20491
 PY  C  10   0.21512     0.11498     0.12563     0.00515    -0.26095     0.06683
 PZ  C  10   0.02054     0.05927    -0.00540     0.31082     0.01636    -0.13283
  
  S  C  11   0.03145    -0.05875    -0.01240     0.01679     0.04055     0.02803
 PX  C  11   0.14967     0.00252     0.02432    -0.09746    -0.05732    -0.19254
 PY  C  11  -0.00831    -0.15915     0.03780    -0.02079     0.23057    -0.03912
 PZ  C  11  -0.04675     0.05271     0.01668     0.15596     0.05949    -0.05848
  
  S  H  12   0.09390     0.10416    -0.02612    -0.03763    -0.24169    -0.05337
  
  S  C  13  -0.04189     0.06098     0.00341    -0.01169     0.05838    -0.00444
 PX  C  13  -0.05573     0.08037     0.06776     0.08921     0.04320     0.22869
 PY  C  13   0.09741     0.09815     0.00190     0.02587    -0.23638     0.09267
 PZ  C  13  -0.06618     0.06336     0.01687     0.15940    -0.02271    -0.05297
  
  S  H  14   0.10820     0.06090     0.19450    -0.01135    -0.14067    -0.03186
  
  S  H  15   0.01761     0.23467    -0.09494    -0.06833     0.04865    -0.10008
  
  S  H  16  -0.14769    -0.12581     0.23161     0.01935    -0.04842    -0.02133
  
  S  H  17  -0.13506    -0.12080     0.22623     0.02765    -0.04629    -0.03267
  
  S  H  18   0.21379    -0.10090    -0.12261     0.03398    -0.02697     0.14903
  
  S  H  19   0.10332     0.02622     0.17560    -0.01428    -0.12353    -0.02396
  
  S  H  20   0.09042     0.06735    -0.02923    -0.03824    -0.22388    -0.03966
  
  S  C  21  -0.01032    -0.03047     0.00696     0.01649     0.03254     0.02724
 PX  C  21   0.00977    -0.20006    -0.11012    -0.12031    -0.10048    -0.15178
 PY  C  21   0.23980    -0.03795     0.09670     0.03108     0.13991    -0.05026
 PZ  C  21  -0.07757     0.08341     0.08175    -0.19253     0.09655     0.17935
  
  S  C  22  -0.01313    -0.00242    -0.00032    -0.01518     0.00377     0.00131
 PX  C  22  -0.02051     0.25780     0.10632    -0.02104     0.06168     0.16517
 PY  C  22  -0.25720    -0.00653    -0.12178     0.01654    -0.15517     0.02136
 PZ  C  22  -0.10605    -0.02219     0.01308    -0.29099     0.02405     0.15242
  
  S  C  23  -0.02224    -0.01442    -0.00929    -0.00974    -0.01535     0.01722
 PX  C  23   0.02465    -0.25112    -0.09864    -0.05763    -0.04272    -0.15248
 PY  C  23   0.25740     0.03212     0.12449    -0.00064     0.15079    -0.00845
 PZ  C  23  -0.10553     0.03508     0.02105    -0.27762    -0.00324     0.15643
  
  S  C  24  -0.01137     0.00035     0.01536     0.00014     0.05748    -0.02230
 PX  C  24  -0.06251     0.24749     0.07253     0.02905    -0.01230     0.17852
 PY  C  24  -0.16292     0.02820    -0.11697     0.04094    -0.20792     0.04461
 PZ  C  24  -0.11591     0.01019    -0.00809    -0.20547    -0.04158     0.07203
  
  S  H  25  -0.18205    -0.09169    -0.15523    -0.04275    -0.19472    -0.06110
  
  S  H  26   0.00236     0.24804     0.10180     0.03873     0.05737     0.12874
  
  S  H  27   0.22062    -0.10973     0.04900    -0.02009     0.09984    -0.09155
  
  S  H  28  -0.12327    -0.08489    -0.13095    -0.00147    -0.16546    -0.05281
  
  S  C  29  -0.01262     0.03605     0.00976    -0.00434     0.01924    -0.00314
 PX  C  29  -0.02087     0.19636     0.13083     0.09686     0.13612     0.19272
 PY  C  29  -0.06572     0.08493    -0.12592     0.00216    -0.31535     0.02141
 PZ  C  29  -0.10284     0.07315     0.02668    -0.04228     0.01653     0.02913
  
  S  C  30   0.00438    -0.01776    -0.01517    -0.00674    -0.03290     0.01497
 PX  C  30   0.10691    -0.11112    -0.07555    -0.10077    -0.09091    -0.21817
 PY  C  30   0.13307    -0.07768     0.14520     0.00092     0.32019    -0.01919
 PZ  C  30  -0.11730     0.05701     0.00606    -0.04009    -0.04511    -0.00371




    ROOT NO.   37          38          39          40          41          42

           -10.60646    -9.84326    -9.64576    -8.29897    -8.05733    -6.71613
  
  
  S  C   1   0.00529     0.01172    -0.00622    -0.00783     0.01133    -0.00854
 PX  C   1  -0.00771     0.00793     0.01580     0.01511     0.00118     0.00844
 PY  C   1   0.00964    -0.02844    -0.00883     0.00172    -0.01828     0.00643
 PZ  C   1   0.11065     0.37005    -0.12198    -0.17738     0.28584    -0.18325
  
  S  C   2  -0.01012    -0.00079     0.01061     0.00570    -0.00110     0.00297
 PX  C   2  -0.00047    -0.01184    -0.00733    -0.00939    -0.00494    -0.00478
 PY  C   2  -0.03164    -0.00605     0.03468     0.02415    -0.00090     0.01312
 PZ  C   2   0.19751     0.16120    -0.31579    -0.34191     0.02664    -0.22985
  
  S  C   3  -0.00131    -0.00640    -0.00326    -0.00699    -0.00675    -0.00463
 PX  C   3  -0.02126     0.03413     0.02912     0.01422     0.02967    -0.00448
 PY  C   3   0.02299    -0.00695    -0.01405    -0.00298     0.00375    -0.00428
 PZ  C   3   0.18732    -0.23746    -0.27410    -0.09575    -0.34255     0.12957
  
  S  C   4   0.01247     0.01037    -0.00796     0.00121     0.01610     0.00860
 PX  C   4   0.00839    -0.03422    -0.01470    -0.01571    -0.00303    -0.00559
 PY  C   4  -0.02691    -0.00115     0.02024     0.00209    -0.00063     0.00107
 PZ  C   4  -0.22480    -0.28843     0.21264     0.01474    -0.33734    -0.13463
  
  S  C   5   0.00165     0.00650    -0.00280     0.00011    -0.00098    -0.00089
 PX  C   5  -0.00768     0.03491     0.01849     0.01927     0.00407     0.00791
 PY  C   5   0.02686     0.00180    -0.02741    -0.01269     0.00435    -0.00501
 PZ  C   5  -0.18381     0.06724     0.36039     0.35576    -0.04963     0.23412
  
  S  C   6  -0.00588     0.00566     0.01119     0.00838     0.00624     0.00568
 PX  C   6   0.00558    -0.04515    -0.02533    -0.02972    -0.02135    -0.01931
 PY  C   6  -0.01790    -0.00779     0.00939    -0.00586    -0.00337    -0.00816
 PZ  C   6  -0.06819     0.31583     0.23202     0.26411     0.23326     0.19651
  
  S  C   7  -0.00411    -0.00005     0.00122     0.00541     0.00210     0.01075
 PX  C   7  -0.00801    -0.00856    -0.00006    -0.01880    -0.00680    -0.01865
 PY  C   7  -0.06276     0.02806     0.03946    -0.02753     0.00664    -0.04140
 PZ  C   7   0.30585    -0.20538    -0.25244     0.19756    -0.02344     0.38291
  
  S  C   8  -0.00352    -0.00183    -0.00232     0.00580    -0.00744     0.00344
 PX  C   8   0.04655     0.05039    -0.03547     0.03137     0.00240     0.04569
 PY  C   8   0.00683     0.00604    -0.00167    -0.00209     0.00355    -0.00738
 PZ  C   8  -0.33496    -0.22136     0.18767    -0.20470     0.04585    -0.37213
  
  S  C   9  -0.00011     0.00645     0.00167    -0.01059     0.02100     0.00443
 PX  C   9   0.01596    -0.02431     0.01551     0.00225    -0.03886    -0.00200
 PY  C   9  -0.03343     0.00090     0.01198    -0.01053     0.02172    -0.00107
 PZ  C   9  -0.25975     0.00167     0.00465    -0.19150     0.39215    -0.01118
  
  S  C  10   0.00870     0.00430    -0.00068     0.01455     0.01489    -0.00385
 PX  C  10  -0.01472     0.01131    -0.00790    -0.00383    -0.00707     0.00348
 PY  C  10   0.02749    -0.00622    -0.00723     0.00005    -0.02439     0.00616
 PZ  C  10   0.27823    -0.02816    -0.03188     0.26783     0.33053     0.01891
  
  S  C  11  -0.01733    -0.00038    -0.01125    -0.00133     0.00213     0.00855
 PX  C  11   0.00916    -0.00832     0.00488     0.00651     0.00871    -0.00539
 PY  C  11  -0.06143    -0.00731    -0.02800    -0.01415     0.00508     0.02542
 PZ  C  11   0.34670     0.16355     0.21041     0.21863    -0.03535    -0.36879
  
  S  H  12   0.03905    -0.01250     0.01387     0.00195     0.00245    -0.00025
  
  S  C  13   0.00344    -0.01216     0.00403     0.01812    -0.00811    -0.03010
 PX  C  13   0.02783     0.00035    -0.00535     0.03321    -0.00145    -0.03611
 PY  C  13  -0.00295     0.01571    -0.01993    -0.00958     0.00613     0.02435
 PZ  C  13  -0.33001     0.26498    -0.16355    -0.21687     0.01430     0.36269
  
  S  H  14   0.02773    -0.01346    -0.01391     0.00062    -0.01004    -0.00294
  
  S  H  15  -0.00996    -0.00851     0.00495     0.00115    -0.00724     0.00253
  
  S  H  16   0.01842    -0.01001    -0.01988    -0.01024    -0.00524    -0.00287
  
  S  H  17   0.02094    -0.01295    -0.01974    -0.00527    -0.00390     0.00200
  
  S  H  18  -0.00281     0.01755     0.00877     0.00807     0.00057     0.00219
  
  S  H  19   0.00408    -0.00811     0.00125    -0.00515    -0.00694    -0.00706
  
  S  H  20   0.00201    -0.00879    -0.00488    -0.01159     0.00395     0.01730
  
  S  C  21   0.00421     0.00484     0.00571    -0.00566    -0.00506     0.00583
 PX  C  21   0.04525    -0.02983     0.06934    -0.06572     0.00248     0.03222
 PY  C  21  -0.04872     0.03128    -0.05015     0.04313    -0.01133    -0.02491
 PZ  C  21   0.17539    -0.16619     0.28593    -0.32568     0.03873     0.21635
  
  S  C  22  -0.00004    -0.01662     0.00340    -0.01057     0.01426     0.01283
 PX  C  22   0.00506    -0.07882     0.01028    -0.02776     0.05894     0.03216
 PY  C  22   0.02997     0.00915     0.01913    -0.00617    -0.00888    -0.00126
 PZ  C  22   0.06328    -0.34945     0.10850    -0.18116     0.27349     0.18279
  
  S  C  23  -0.00489    -0.00217    -0.01137     0.01241    -0.00087    -0.00918
 PX  C  23   0.00228    -0.01947    -0.00137     0.01471     0.01577    -0.01764
 PY  C  23  -0.02252    -0.00398    -0.01222     0.00321     0.00414     0.00179
 PZ  C  23  -0.13713    -0.28387    -0.24558     0.27283     0.21418    -0.19989
  
  S  C  24   0.01069    -0.00890     0.02558    -0.02523     0.00971     0.01358
 PX  C  24  -0.02452     0.00656    -0.04141     0.02917    -0.01192    -0.00993
 PY  C  24   0.03679     0.01180     0.02180    -0.01496    -0.00147     0.01191
 PZ  C  24  -0.22919    -0.03861    -0.35109     0.35286    -0.05583    -0.22748
  
  S  H  25   0.03514    -0.00992     0.02583    -0.00773     0.00429    -0.00521
  
  S  H  26  -0.01076    -0.00590    -0.01571     0.01293     0.00236    -0.00793
  
  S  H  27  -0.01416     0.00176    -0.00400     0.00238    -0.00068    -0.00218
  
  S  H  28   0.02128     0.00032     0.00723     0.00641     0.00202    -0.00890
  
  S  C  29   0.01031     0.01373     0.01936    -0.00953    -0.01705    -0.01211
 PX  C  29  -0.00228     0.03212    -0.00874     0.01635    -0.03416    -0.01572
 PY  C  29   0.03884    -0.02540     0.01434    -0.00855     0.02614     0.01208
 PZ  C  29   0.23323     0.21475     0.26956    -0.07582    -0.32651    -0.15001
  
  S  C  30  -0.00837     0.01890    -0.01310    -0.00045    -0.01638     0.01783
 PX  C  30   0.01637    -0.04496     0.02844    -0.01584     0.02935    -0.00232
 PY  C  30  -0.04209     0.01329    -0.02095     0.01376    -0.01810    -0.01080
 PZ  C  30  -0.22261     0.31570    -0.18736    -0.00436    -0.34104     0.15283




    ROOT NO.   43          44          45          46          47          48

            -1.04650     0.14393     0.31466     1.25396     1.35711     1.82733
  
  
  S  C   1   0.00831     0.01729    -0.00891     0.00853     0.02975    -0.01245
 PX  C   1  -0.00220    -0.00698     0.00529    -0.00055    -0.01398    -0.00239
 PY  C   1  -0.01347    -0.00808     0.01638     0.00583    -0.01500     0.00346
 PZ  C   1   0.19848     0.22785    -0.24476    -0.01278     0.39221    -0.07133
  
  S  C   2  -0.00004    -0.00323    -0.00240    -0.00583    -0.00640     0.01903
 PX  C   2   0.00122     0.00546    -0.00454     0.00116     0.01140     0.00503
 PY  C   2   0.01248    -0.00053    -0.01984    -0.01421     0.01488    -0.00004
 PZ  C   2  -0.22541     0.03968     0.34109     0.27408    -0.25328     0.16933
  
  S  C   3  -0.00380    -0.00327    -0.00201    -0.01722     0.00558    -0.04864
 PX  C   3   0.00750     0.01816     0.00503     0.02138     0.00263     0.00050
 PY  C   3   0.00695     0.00966    -0.00452     0.00407     0.00831    -0.00045
 PZ  C   3  -0.14745    -0.33732    -0.02025    -0.36564    -0.13304    -0.19239
  
  S  C   4   0.01099    -0.01574     0.00296     0.01486    -0.02995     0.03989
 PX  C   4   0.00447    -0.00170     0.00057     0.00641    -0.00296     0.01017
 PY  C   4  -0.00493    -0.00348     0.00165    -0.00705    -0.00165    -0.01053
 PZ  C   4  -0.13181     0.33050    -0.09220    -0.11300     0.36616    -0.19188
  
  S  C   5  -0.00776     0.01234     0.00233    -0.00309     0.02420    -0.02338
 PX  C   5  -0.00774     0.00306     0.00342    -0.00502     0.00473    -0.01067
 PY  C   5   0.01128    -0.00544    -0.01631    -0.02130    -0.00371    -0.00949
 PZ  C   5  -0.23324     0.02327     0.34754     0.37378    -0.04341     0.17792
  
  S  C   6   0.00807    -0.01856    -0.00716    -0.01754    -0.03117     0.00659
 PX  C   6  -0.01237     0.01719     0.01389     0.02420     0.01244     0.01131
 PY  C   6   0.00012     0.00873     0.00053     0.01075     0.00846     0.00579
 PZ  C   6   0.18846    -0.27039    -0.19399    -0.32404    -0.24023    -0.08715
  
  S  C   7   0.01150    -0.01297    -0.00765     0.01438    -0.00001     0.06133
 PX  C   7  -0.01475    -0.00572     0.00468    -0.01800    -0.00160    -0.00893
 PY  C   7  -0.03839    -0.00487     0.01933    -0.03242    -0.00708    -0.01604
 PZ  C   7   0.38127    -0.03802    -0.20926     0.29955     0.07906     0.30451
  
  S  C   8  -0.00388     0.01737     0.00069    -0.00177     0.01707    -0.02704
 PX  C   8  -0.03280     0.00799     0.02003    -0.01021     0.02330    -0.02803
 PY  C   8   0.01061    -0.00433    -0.00286     0.00667    -0.01382     0.01378
 PZ  C   8   0.37539     0.00056    -0.20404     0.11857    -0.29584     0.28773
  
  S  C   9  -0.00358    -0.04448     0.00291     0.00297    -0.00493     0.03051
 PX  C   9  -0.00520     0.02389    -0.02747     0.00219     0.00601     0.02786
 PY  C   9  -0.00838     0.00113     0.01080    -0.00021     0.00233    -0.02309
 PZ  C   9  -0.01602    -0.35093     0.27883    -0.03006     0.01914    -0.25305
  
  S  C  10  -0.00433     0.04086     0.01086     0.00355    -0.00207    -0.06522
 PX  C  10   0.00191    -0.02077    -0.00619     0.00987    -0.00140     0.00187
 PY  C  10   0.00636    -0.00522    -0.01702     0.00547    -0.00013     0.02133
 PZ  C  10  -0.01525     0.38362     0.20567    -0.02591     0.01618    -0.28435
  
  S  C  11   0.00558    -0.00172     0.00545    -0.01839    -0.00318     0.04766
 PX  C  11  -0.00690     0.02319     0.00496    -0.01380    -0.00552    -0.00082
 PY  C  11   0.02315     0.01182     0.01970    -0.00040     0.00362    -0.00737
 PZ  C  11  -0.35653     0.00346    -0.21676    -0.23934    -0.11760     0.35491
  
  S  H  12  -0.00060     0.00495    -0.00252     0.00710     0.00584    -0.01571
  
  S  C  13   0.01644     0.00026     0.01148     0.00479     0.00367    -0.03907
 PX  C  13   0.02733    -0.02273     0.01923     0.01070    -0.00679    -0.02063
 PY  C  13  -0.01295    -0.01390    -0.00600     0.00003     0.00835     0.01697
 PZ  C  13  -0.36438    -0.03021    -0.22352    -0.05842     0.26578     0.33806
  
  S  H  14  -0.00801     0.00860     0.00243    -0.01634     0.00002    -0.03513
  
  S  H  15  -0.00568    -0.00908     0.00641    -0.00279    -0.01680     0.00939
  
  S  H  16  -0.00238    -0.00034     0.00278     0.00318     0.00322    -0.00820
  
  S  H  17  -0.00010    -0.00567     0.00288     0.00483    -0.01153     0.01458
  
  S  H  18  -0.00687     0.01177     0.00722     0.01466     0.02015    -0.00201
  
  S  H  19   0.00027    -0.00562    -0.00309    -0.00045    -0.00338     0.01656
  
  S  H  20  -0.00520     0.00399    -0.00547    -0.00824    -0.00103     0.03209
  
  S  C  21   0.01120     0.01354     0.02247    -0.03418     0.01225     0.05088
 PX  C  21   0.04121    -0.01682     0.05781    -0.01903     0.05852     0.01673
 PY  C  21  -0.01812    -0.00811    -0.02989     0.02523    -0.01508    -0.02205
 PZ  C  21   0.21395     0.03232     0.32839    -0.21890     0.23797     0.21070
  
  S  C  22  -0.01298     0.02198    -0.02196     0.00767    -0.04486    -0.03208
 PX  C  22  -0.03863     0.04165    -0.04328    -0.00381    -0.06549    -0.00839
 PY  C  22   0.00882    -0.00218     0.01350    -0.01222     0.01043     0.01636
 PZ  C  22  -0.19283     0.22372    -0.22836    -0.00503    -0.35605    -0.08310
  
  S  C  23   0.00330    -0.01498     0.00466     0.00694     0.02224     0.00879
 PX  C  23  -0.01661    -0.02944    -0.01779     0.02990     0.02934    -0.01266
 PY  C  23  -0.00363     0.00843    -0.00510    -0.00128    -0.01461    -0.00588
 PZ  C  23  -0.19880    -0.26854    -0.22385     0.30300     0.20055    -0.13284
  
  S  C  24  -0.01710    -0.00581    -0.02453     0.02631     0.00078    -0.03010
 PX  C  24   0.02166     0.01916     0.02796    -0.03475    -0.01582     0.02147
 PY  C  24  -0.00755     0.00932    -0.01700     0.01357    -0.01688    -0.01215
 PZ  C  24   0.22983     0.02758     0.35252    -0.33056     0.05625     0.24377
  
  S  H  25  -0.00793    -0.01414    -0.01298     0.01801    -0.00316    -0.02312
  
  S  H  26   0.00289    -0.01321     0.00943    -0.00347     0.02722     0.01988
  
  S  H  27   0.00033     0.00324     0.00188    -0.00632    -0.00642    -0.00123
  
  S  H  28   0.00648    -0.00268     0.01735    -0.02086     0.00947     0.02686
  
  S  C  29  -0.00017    -0.04677    -0.01387     0.05224     0.02270    -0.06427
 PX  C  29   0.00917    -0.01478    -0.01223     0.02745    -0.01138    -0.02397
 PY  C  29  -0.01176     0.00014    -0.00249    -0.00881     0.01020     0.01881
 PZ  C  29   0.15404    -0.34891    -0.01182     0.30573     0.14312    -0.23212
  
  S  C  30   0.00983     0.04535     0.00438    -0.02327    -0.04064     0.02229
 PX  C  30  -0.00543    -0.00481     0.00894    -0.01651     0.01339     0.01767
 PY  C  30   0.00953    -0.00570     0.00169     0.01034    -0.00082    -0.01653
 PZ  C  30   0.15223     0.33616    -0.06680     0.09030    -0.34927    -0.26418




    ROOT NO.   49          50          51          52          53          54

             2.35001     2.39610     2.80116     3.14572     3.30162     3.37207
  
  
  S  C   1  -0.02628    -0.09902     0.18329    -0.06704    -0.00029     0.18664
 PX  C   1  -0.03210    -0.01874     0.03155    -0.02987     0.05511     0.02852
 PY  C   1  -0.01544    -0.01144     0.02940    -0.02117    -0.06267     0.01011
 PZ  C   1   0.28168    -0.13491     0.08249     0.25438     0.04428     0.04208
  
  S  C   2   0.08614     0.14397    -0.25999     0.12521    -0.08445    -0.22233
 PX  C   2   0.03348     0.02088    -0.02227     0.02106    -0.03722     0.01388
 PY  C   2   0.04246     0.03284    -0.04476     0.03837    -0.02060    -0.00582
 PZ  C   2  -0.20606     0.10091    -0.09400    -0.25934    -0.04718    -0.07276
  
  S  C   3  -0.14854    -0.19957     0.31010    -0.15178     0.09878     0.14428
 PX  C   3  -0.02260    -0.00561    -0.05772     0.03452     0.11705    -0.05625
 PY  C   3  -0.01717    -0.01808     0.01010    -0.01546    -0.09897    -0.07702
 PZ  C   3   0.05134    -0.01595     0.07867     0.31260     0.04542     0.10848
  
  S  C   4   0.12444     0.18632    -0.27451     0.13779     0.21413     0.01533
 PX  C   4   0.02787     0.02353     0.00459    -0.01663    -0.06788     0.03065
 PY  C   4  -0.00692    -0.01507     0.07370    -0.05577     0.08756     0.11478
 PZ  C   4   0.00584     0.07012    -0.12435    -0.30375    -0.03321    -0.11256
  
  S  C   5  -0.06636    -0.12401     0.20918    -0.11121    -0.24816     0.02465
 PX  C   5  -0.03576    -0.04179     0.04685    -0.02714    -0.03706    -0.03311
 PY  C   5  -0.01630     0.01100    -0.01762    -0.01648     0.00086    -0.03149
 PZ  C   5   0.16816    -0.12674     0.10638     0.25404     0.04168     0.06862
  
  S  C   6   0.01226     0.09665    -0.17277     0.04926     0.16992    -0.10603
 PX  C   6   0.03296     0.01225    -0.02764     0.03740     0.02371    -0.00272
 PY  C   6   0.02131     0.00606    -0.00465     0.01751     0.07081     0.05222
 PZ  C   6  -0.26250     0.14502    -0.08746    -0.24751    -0.05274    -0.04362
  
  S  C   7   0.18026     0.18614    -0.15135     0.00111    -0.27187     0.03480
 PX  C   7   0.00066    -0.00930     0.09995    -0.07842    -0.04844     0.09804
 PY  C   7   0.03232     0.04629     0.01957    -0.02165    -0.05004     0.06007
 PZ  C   7   0.10514    -0.10346     0.00874    -0.14649    -0.02619    -0.09165
  
  S  C   8  -0.14647    -0.17851     0.12921     0.03206    -0.18774    -0.23938
 PX  C   8  -0.02477    -0.02638    -0.07229     0.07468     0.02035    -0.12046
 PY  C   8   0.01248     0.02923    -0.06466     0.04906     0.03454    -0.03073
 PZ  C   8  -0.18475     0.03098     0.02826     0.15842     0.03550     0.08679
  
  S  C   9   0.20895     0.20039     0.00956    -0.17653     0.07509     0.37279
 PX  C   9  -0.00751     0.02420     0.06647    -0.04255    -0.06473    -0.00460
 PY  C   9  -0.03198    -0.00928     0.04308     0.00636     0.16546    -0.02894
 PZ  C   9   0.32194    -0.13418     0.06769    -0.01353    -0.06721    -0.12774
  
  S  C  10  -0.23091    -0.20904     0.00695     0.14271     0.30225    -0.21391
 PX  C  10   0.03139    -0.00262    -0.06833    -0.00131     0.05161     0.08731
 PY  C  10  -0.01196    -0.02303    -0.04681     0.06162    -0.10382    -0.12552
 PZ  C  10  -0.25707     0.19256    -0.07933     0.00038     0.01617     0.11395
  
  S  C  11   0.15535     0.20331     0.11119    -0.09716    -0.25803    -0.02360
 PX  C  11  -0.05000    -0.01385     0.06240     0.03653     0.06914    -0.11157
 PY  C  11  -0.00291     0.04117     0.05221     0.00460     0.01685    -0.06437
 PZ  C  11   0.12256    -0.06891     0.09372     0.11459    -0.05451    -0.00283
  
  S  H  12  -0.09072    -0.10758    -0.07028     0.07457     0.11723    -0.00631
  
  S  C  13  -0.12406    -0.20417    -0.13278     0.13535    -0.23139    -0.16573
 PX  C  13   0.03017    -0.02541    -0.07255    -0.01282    -0.05518     0.12687
 PY  C  13   0.03586     0.02641    -0.02233    -0.03313    -0.00896     0.08750
 PZ  C  13  -0.20333    -0.00809    -0.10653    -0.08669     0.05098     0.01067
  
  S  H  14  -0.10412    -0.10157     0.08999     0.00860     0.13951    -0.04901
  
  S  H  15   0.01903     0.05837    -0.10578     0.04180    -0.01404    -0.10959
  
  S  H  16  -0.04376    -0.08289     0.16372    -0.07858     0.02338     0.14513
  
  S  H  17   0.04141     0.06951    -0.13221     0.08372     0.14178    -0.03325
  
  S  H  18  -0.00402    -0.06404     0.11118    -0.02242    -0.11232     0.06813
  
  S  H  19   0.08570     0.10004    -0.08578    -0.02160     0.07579     0.14406
  
  S  H  20   0.07008     0.11671     0.08464    -0.08103     0.10596     0.10039
  
  S  C  21   0.03558     0.17351     0.19536     0.03484    -0.09705    -0.23091
 PX  C  21  -0.07172    -0.02475    -0.03683     0.04569     0.02736     0.04960
 PY  C  21   0.00968    -0.01346    -0.00388    -0.01619     0.02155    -0.02525
 PZ  C  21  -0.19817     0.16633     0.07449     0.19868    -0.06290     0.11302
  
  S  C  22   0.00825    -0.12659    -0.13864    -0.03523     0.02437     0.19548
 PX  C  22   0.05820    -0.00927     0.02401    -0.03586     0.01822    -0.05936
 PY  C  22   0.00199     0.02079     0.01174     0.01503    -0.07639    -0.00627
 PZ  C  22   0.25653    -0.22613    -0.07150    -0.18531     0.05361    -0.11459
  
  S  C  23   0.00703     0.11623     0.14085    -0.00838     0.15431    -0.15729
 PX  C  23  -0.04422     0.00711    -0.01344     0.04898    -0.08120     0.00410
 PY  C  23   0.00839    -0.02701    -0.02436    -0.01508     0.02653     0.03482
 PZ  C  23  -0.21976     0.25031     0.09168     0.17175    -0.06088     0.08146
  
  S  C  24  -0.06350    -0.13129    -0.17515     0.07884    -0.26132     0.14957
 PX  C  24   0.03772    -0.00289     0.00511    -0.03707     0.03077     0.01891
 PY  C  24   0.02158     0.06743     0.06608    -0.00666     0.05496    -0.01432
 PZ  C  24   0.12232    -0.21993    -0.12185    -0.16958     0.05289    -0.04087
  
  S  H  25  -0.01209    -0.10122    -0.12226    -0.02971     0.02724     0.13700
  
  S  H  26  -0.00522     0.07521     0.07861     0.02076    -0.02665    -0.11377
  
  S  H  27  -0.00669    -0.07565    -0.09127     0.00310    -0.10421     0.09394
  
  S  H  28   0.03100     0.06441     0.09478    -0.04749     0.13574    -0.10711
  
  S  C  29  -0.10264    -0.23189    -0.24466     0.02207     0.08928     0.22222
 PX  C  29   0.04282     0.01861    -0.00582    -0.05766     0.04018     0.04309
 PY  C  29   0.00063    -0.01906    -0.06286     0.01387    -0.16732     0.04497
 PZ  C  29   0.03763    -0.04619    -0.09385    -0.23342     0.06890    -0.10668
  
  S  C  30   0.10491     0.22534     0.25379    -0.08080     0.25879    -0.11676
 PX  C  30  -0.01613    -0.00419     0.03952     0.01937    -0.04013    -0.13243
 PY  C  30  -0.00999    -0.03376    -0.02428    -0.01667     0.10245     0.02227
 PZ  C  30   0.02831     0.09383     0.10893     0.21873    -0.12387     0.06284




    ROOT NO.   55          56          57          58          59          60

             3.57859     3.75664     3.83245     3.89043     4.10728     4.22637
  
  
  S  C   1   0.05202    -0.33721    -0.05659    -0.25582     0.06008    -0.04065
 PX  C   1  -0.04634     0.09576    -0.07889    -0.04531     0.08301    -0.03174
 PY  C   1   0.04009    -0.11916     0.05737     0.01486    -0.03219     0.02136
 PZ  C   1   0.09707     0.07074    -0.00297     0.03609    -0.00655     0.00464
  
  S  C   2   0.04700     0.00985     0.20844     0.24366    -0.23477     0.09147
 PX  C   2   0.04840    -0.17921     0.03435    -0.06699    -0.00916    -0.00064
 PY  C   2   0.02857    -0.06281    -0.00516    -0.05276     0.06770    -0.02453
 PZ  C   2  -0.13145    -0.05132     0.00966    -0.02094     0.00266    -0.00362
  
  S  C   3  -0.09818     0.27256    -0.13946     0.01976    -0.03635    -0.02095
 PX  C   3  -0.04379    -0.00052     0.02195    -0.02369    -0.18441     0.02006
 PY  C   3   0.01470     0.07724     0.09544     0.17979    -0.05240     0.04473
 PZ  C   3   0.23857     0.04334    -0.00257     0.03006    -0.00667     0.00958
  
  S  C   4  -0.01331    -0.22114    -0.06324    -0.26304    -0.03892    -0.02637
 PX  C   4   0.05115    -0.12873     0.08114     0.07563    -0.14133     0.04254
 PY  C   4  -0.04264     0.06415    -0.08283    -0.02187    -0.10761    -0.01033
 PZ  C   4  -0.23768    -0.07307     0.00564    -0.04626     0.00650    -0.00518
  
  S  C   5   0.09975    -0.15266     0.19092     0.23615    -0.23837     0.08957
 PX  C   5  -0.02615     0.17257    -0.02062     0.08055     0.04572    -0.01691
 PY  C   5  -0.02576     0.08327     0.01038     0.06756    -0.04332     0.01566
 PZ  C   5   0.12888     0.05930    -0.00669     0.02953    -0.01522     0.00335
  
  S  C   6  -0.13911     0.42313    -0.12070     0.05760     0.06063    -0.03344
 PX  C   6   0.00575     0.00159    -0.01033    -0.02311     0.03936    -0.00656
 PY  C   6  -0.01068    -0.04995    -0.07588    -0.14422     0.09232    -0.04111
 PZ  C   6  -0.08791    -0.08480     0.01103    -0.03398     0.01317    -0.00226
  
  S  C   7   0.09847    -0.11242     0.01954     0.07817     0.37065    -0.01271
 PX  C   7  -0.00849     0.11448    -0.07622     0.03043     0.04591    -0.02477
 PY  C   7   0.02520     0.05140    -0.04228     0.00828    -0.06596    -0.02018
 PZ  C   7  -0.22918    -0.02521     0.01224    -0.01395    -0.03286    -0.00911
  
  S  C   8   0.04551     0.11519     0.11758     0.07544     0.35234    -0.00201
 PX  C   8  -0.01294    -0.07073     0.00292    -0.12561    -0.00862    -0.03002
 PY  C   8   0.00704    -0.04827    -0.00104    -0.06654     0.05725    -0.01203
 PZ  C   8   0.22465     0.03972    -0.00821     0.01616    -0.00650     0.00499
  
  S  C   9  -0.04646     0.05679    -0.08960     0.15149    -0.09039     0.09699
 PX  C   9   0.04692     0.05975     0.06072     0.07186     0.16264     0.03080
 PY  C   9  -0.02636    -0.03125     0.09829    -0.00266     0.00782     0.13269
 PZ  C   9  -0.29525    -0.05462     0.03806    -0.01815     0.02020    -0.01780
  
  S  C  10  -0.06376    -0.11052     0.11284    -0.10819    -0.07006     0.10042
 PX  C  10  -0.04412    -0.07568     0.00752     0.11557     0.09880     0.11286
 PY  C  10   0.03734    -0.05217     0.04165    -0.02732     0.15636    -0.05425
 PZ  C  10   0.32272     0.06047    -0.04201     0.02138     0.02280     0.00834
  
  S  C  11   0.12461     0.18173    -0.03539    -0.17079    -0.15302    -0.26754
 PX  C  11   0.00235     0.00512     0.03994    -0.12232    -0.05706     0.00388
 PY  C  11   0.01737     0.00623     0.03686    -0.05998     0.01931     0.09843
 PZ  C  11  -0.26142    -0.04203     0.03151     0.01498    -0.00160    -0.02675
  
  S  H  12  -0.07492    -0.12537     0.01322     0.11087     0.15602     0.25998
  
  S  C  13   0.01169    -0.03423    -0.19392    -0.09383    -0.13530    -0.29677
 PX  C  13  -0.03997     0.01236    -0.10633     0.05047    -0.01563     0.08381
 PY  C  13  -0.00870     0.01772    -0.07411     0.02005    -0.05266    -0.05172
 PZ  C  13   0.23243     0.03601    -0.03418    -0.01393    -0.00941     0.00789
  
  S  H  14  -0.04637     0.08764    -0.00165    -0.04922    -0.33446    -0.01050
  
  S  H  15  -0.02213     0.19174     0.03493     0.15022     0.00031     0.02081
  
  S  H  16  -0.01869    -0.00299    -0.14647    -0.16561     0.23113    -0.07604
  
  S  H  17  -0.05831     0.11086    -0.13219    -0.17080     0.23252    -0.07596
  
  S  H  18   0.09574    -0.27446     0.07106    -0.05214     0.00869     0.01354
  
  S  H  19  -0.01963    -0.08950    -0.07887    -0.04178    -0.30923    -0.01604
  
  S  H  20  -0.00428     0.03795     0.14118     0.05827     0.14037     0.28560
  
  S  C  21   0.03332     0.00717    -0.23324    -0.14199    -0.04656     0.34816
 PX  C  21  -0.05652    -0.06547    -0.11047     0.12043     0.00667     0.03767
 PY  C  21   0.02173    -0.03498    -0.06909     0.06735     0.00441    -0.05424
 PZ  C  21  -0.18844    -0.01135     0.08128     0.01921     0.00259    -0.08445
  
  S  C  22  -0.02563     0.11328     0.39565    -0.12676     0.02778    -0.11868
 PX  C  22   0.03538    -0.01395    -0.04826     0.00995     0.00430     0.03564
 PY  C  22  -0.00334     0.06613     0.03361    -0.14342    -0.02670     0.14324
 PZ  C  22   0.15385    -0.00094    -0.09271    -0.00158    -0.00586     0.04745
  
  S  C  23   0.02546    -0.19005    -0.28013     0.31097     0.03868    -0.13343
 PX  C  23  -0.02954    -0.00050    -0.11232    -0.01153    -0.01530     0.12478
 PY  C  23  -0.00093     0.00827     0.08297     0.00623     0.01730    -0.05819
 PZ  C  23  -0.13281     0.00541     0.07804    -0.01538    -0.00068    -0.03887
  
  S  C  24  -0.07308     0.11499    -0.06832    -0.18320    -0.04504     0.33226
 PX  C  24   0.01897     0.05821     0.16219    -0.10234    -0.00219     0.00472
 PY  C  24  -0.00746     0.01273     0.08541    -0.04106     0.00131     0.03534
 PZ  C  24   0.14771     0.02060    -0.04371    -0.01540     0.00019     0.06775
  
  S  H  25  -0.00193     0.01245     0.14987     0.07329     0.01557    -0.29746
  
  S  H  26   0.01992    -0.05859    -0.22707     0.06452    -0.02557     0.03475
  
  S  H  27  -0.00808     0.12533     0.17936    -0.20726    -0.03335     0.05708
  
  S  H  28   0.06068    -0.06496     0.03818     0.10012     0.01730    -0.26361
  
  S  C  29  -0.08904    -0.11981    -0.09656     0.29553     0.06818    -0.04032
 PX  C  29   0.03885     0.03215     0.14795     0.00580     0.01340    -0.17017
 PY  C  29   0.00746     0.04332    -0.12966    -0.02151    -0.06751    -0.06534
 PZ  C  29   0.30469     0.05856    -0.03571    -0.07580    -0.00887     0.06762
  
  S  C  30   0.04546     0.00789     0.30976    -0.05718     0.05986    -0.03137
 PX  C  30   0.04131    -0.01016    -0.03204    -0.04812    -0.04894    -0.16973
 PY  C  30  -0.00447    -0.07756    -0.01099     0.16315     0.04529    -0.11817
 PZ  C  30  -0.26948    -0.03986    -0.01076     0.03465    -0.00873    -0.04387




    ROOT NO.   61          62          63          64          65          66

             5.15625     5.55448     5.69256     5.72287     6.12894     6.36955
  
  
  S  C   1   0.08312    -0.26365    -0.24684     0.08499    -0.06818    -0.02169
 PX  C   1  -0.10674    -0.00443     0.15107    -0.05769     0.09173     0.04186
 PY  C   1   0.05442     0.25586     0.10619    -0.03306     0.00661    -0.00255
 PZ  C   1  -0.01268     0.02188     0.02673    -0.00938     0.00877     0.00280
  
  S  C   2   0.14481     0.03456    -0.17002     0.06671    -0.10665    -0.05302
 PX  C   2   0.08073    -0.16714    -0.18970     0.06694    -0.06083    -0.02257
 PY  C   2  -0.05028     0.01390     0.18267    -0.07299     0.19079     0.13689
 PZ  C   2   0.00817     0.00422     0.00121    -0.00070     0.00634     0.00662
  
  S  C   3  -0.04318     0.06862    -0.05670     0.02524    -0.15274    -0.12062
 PX  C   3   0.15142     0.03510    -0.04111     0.01089     0.07283     0.07885
 PY  C   3   0.03931     0.03879    -0.12646     0.05418    -0.15267    -0.10873
 PZ  C   3   0.00091    -0.01064    -0.00584     0.00191     0.00308     0.00288
  
  S  C   4   0.03867    -0.06154     0.08077    -0.03778     0.15290     0.10721
 PX  C   4  -0.12639    -0.07658     0.10570    -0.04059     0.06938     0.03468
 PY  C   4  -0.10057     0.06981     0.01547    -0.00243    -0.14775    -0.13603
 PZ  C   4   0.00685     0.00472     0.00903    -0.00298     0.01053     0.00712
  
  S  C   5  -0.17123    -0.13670     0.12409    -0.04869     0.09463     0.04292
 PX  C   5  -0.01156     0.02730    -0.07976     0.03239    -0.12364    -0.08405
 PY  C   5  -0.12676    -0.24237     0.05059    -0.02568     0.12349     0.08082
 PZ  C   5  -0.01478    -0.02453    -0.00002    -0.00080     0.00549     0.00322
  
  S  C   6  -0.14492    -0.28769    -0.02659     0.00247     0.03854     0.02056
 PX  C   6   0.09880     0.29593     0.04574    -0.00902    -0.04536    -0.02563
 PY  C   6   0.09903    -0.03529    -0.15700     0.05780    -0.07994    -0.03225
 PZ  C   6   0.02748     0.04810    -0.00018     0.00135    -0.00903    -0.00416
  
  S  C   7  -0.21641    -0.04667     0.04064    -0.01013    -0.09257    -0.10844
 PX  C   7  -0.06437    -0.00385    -0.05996     0.02147    -0.12322    -0.10752
 PY  C   7   0.09902     0.04126    -0.06878     0.01277     0.12540     0.24094
 PZ  C   7   0.01954     0.00968    -0.00695     0.00118     0.01001     0.01995
  
  S  C   8   0.22399    -0.03551    -0.09094     0.02922     0.11081     0.11698
 PX  C   8  -0.03965    -0.05869     0.09711    -0.04663    -0.03420    -0.12227
 PY  C   8   0.08943    -0.07041    -0.03056     0.00562     0.16712     0.19200
 PZ  C   8  -0.00603    -0.00558     0.00598    -0.00428    -0.00524    -0.01130
  
  S  C   9   0.01665     0.08811    -0.11595     0.06330     0.03006     0.15630
 PX  C   9   0.16490    -0.01960    -0.05575     0.01498     0.09199     0.09969
 PY  C   9   0.07639    -0.05290     0.11826    -0.02491     0.00258    -0.15948
 PZ  C   9   0.01338    -0.00877     0.00829    -0.00170     0.00596    -0.00517
  
  S  C  10  -0.02307    -0.03862     0.13268    -0.03044    -0.03806    -0.16501
 PX  C  10  -0.15330     0.06218    -0.06672     0.04742    -0.04884     0.09369
[...]
  S   H   18   -0.0588   -0.0339    0.0248   -0.0611    0.0006    0.3140    0.0203    0.1215
  S   H   19   -0.1837   -0.2289   -0.2232    0.1754   -0.1413    0.0730   -0.0121    0.0110
  S   H   20    0.0933   -0.2091   -0.3179   -0.0887   -0.0108   -0.0140    0.0559    0.0080
  S   C   21    0.1341   -0.0618    0.0063   -0.0012    0.0181   -0.0046    0.0994    0.0621
  Px  C   21    0.1646   -0.1334    0.1913    0.0993   -0.2440    0.0094   -0.1057   -0.1136
  Py  C   21   -0.1609    0.1042   -0.0442   -0.0296    0.0735   -0.0135    0.3022    0.1350
  Pz  C   21   -0.0454    0.0313   -0.0338   -0.0186    0.0492   -0.0028    0.0465    0.0300
  S   C   22    0.0414   -0.0091   -0.0709   -0.0293    0.0581    0.0029   -0.0911    0.0001
  Px  C   22    0.0284   -0.0068   -0.0672   -0.0328    0.0667   -0.0162    0.4862   -0.0110
  Py  C   22    0.1239   -0.0573    0.0254    0.0103   -0.0251    0.0003   -0.0179    0.0954
  Pz  C   22   -0.0040    0.0001    0.0181    0.0084   -0.0181    0.0030   -0.0876    0.0037
  S   C   23   -0.1091    0.0489   -0.0471   -0.0200    0.0412   -0.0022    0.0755   -0.0527
  Px  C   23   -0.1516    0.0667    0.0437    0.0172   -0.0411    0.0041   -0.2052    0.1431
  Py  C   23   -0.0420    0.0273   -0.0740   -0.0339    0.0689    0.0108   -0.4030    0.1709
  Pz  C   23    0.0257   -0.0116   -0.0065   -0.0024    0.0042   -0.0003    0.0113   -0.0055
  S   C   24   -0.1767    0.0802    0.0694    0.0246   -0.0331    0.0014   -0.0621    0.0433
  Px  C   24    0.0923   -0.0460    0.0446    0.0212   -0.0579    0.0037   -0.1635    0.1398
  Py  C   24   -0.1744    0.1085    0.2435    0.1175   -0.2533   -0.0074    0.2287   -0.1010
  Pz  C   24   -0.0391    0.0208    0.0225    0.0092   -0.0142   -0.0004    0.0188   -0.0134
  S   H   25   -0.2366    0.1483   -0.1169   -0.0628    0.1484   -0.0098    0.1786    0.0996
  S   H   26   -0.0486    0.0158    0.0729    0.0322   -0.0602    0.0105   -0.3198    0.0089
  S   H   27    0.1598   -0.0768    0.0404    0.0183   -0.0323   -0.0070    0.2859   -0.1379
  S   H   28    0.2547   -0.1340   -0.1937   -0.0884    0.1741    0.0051   -0.1718    0.0917
  S   C   29    0.1849   -0.1489    0.1383    0.0755   -0.2172    0.0006    0.0236   -0.0050
  Px  C   29   -0.1083    0.0557    0.0388    0.0274   -0.1181    0.0118   -0.1486   -0.1622
  Py  C   29    0.1242   -0.1278   -0.0960   -0.0453    0.1482    0.0022   -0.0578   -0.1369
  Pz  C   29   -0.0137    0.0124   -0.0267   -0.0130    0.0337   -0.0008    0.0023    0.0064
  S   C   30   -0.1229    0.0907    0.1843    0.0890   -0.2279    0.0017   -0.0022    0.0181
  Px  C   30   -0.0552    0.0879   -0.0341   -0.0144    0.0617   -0.0042    0.0877   -0.0054
  Py  C   30    0.1948   -0.1402    0.0080    0.0207   -0.1248   -0.0053    0.0952   -0.0373
  Pz  C   30    0.0208   -0.0122   -0.0288   -0.0130    0.0368   -0.0001    0.0018   -0.0010


   Root No.      73        74        75        76        77        78        79        80

                73 A      74 A      75 A      76 A      77 A      78 A      79 A      80 A   

                 9.349     9.543    10.128    10.702    10.985    11.521    11.697    12.134
  
  S   C    1    0.0486   -0.0548   -0.0559    0.0699   -0.0248    0.0352    0.0086    0.0058
  Px  C    1    0.1328   -0.2276    0.0386    0.1878    0.1660   -0.1721   -0.0804    0.1845
  Py  C    1    0.1639   -0.1127   -0.2262    0.1134   -0.1699    0.1979    0.0752   -0.1044
  Pz  C    1    0.0105   -0.0090   -0.0094    0.0072   -0.0041    0.0046    0.0021   -0.0022
  S   C    2   -0.0377    0.0902   -0.0626   -0.0279   -0.0812    0.0844    0.0049   -0.0046
  Px  C    2    0.1194   -0.2002   -0.0208    0.2134    0.0949   -0.0829   -0.0789    0.2019
  Py  C    2   -0.0466    0.1733   -0.1915    0.0643   -0.1384    0.1501   -0.0498    0.1223
  Pz  C    2   -0.0030    0.0105   -0.0128    0.0041   -0.0101    0.0110   -0.0032    0.0088
  S   C    3   -0.0252    0.0418    0.0076   -0.0585   -0.0359    0.0349    0.0018   -0.0087
  Px  C    3    0.0296    0.1371   -0.2473    0.0870   -0.0235   -0.1321    0.1512   -0.1754
  Py  C    3   -0.0051    0.0269   -0.1203    0.1020   -0.1569    0.2702   -0.1984    0.3568
  Pz  C    3    0.0038    0.0066   -0.0181    0.0095   -0.0020   -0.0064    0.0053   -0.0053
  S   C    4   -0.0009    0.0394    0.0034   -0.0599    0.0125   -0.0331   -0.0092    0.0050
  Px  C    4   -0.1873    0.0831    0.2621    0.0822    0.2046   -0.1338    0.1306   -0.1870
  Py  C    4   -0.1396    0.0962    0.1523   -0.0246   -0.0622    0.2695   -0.2182    0.3480
  Pz  C    4   -0.0042    0.0037    0.0047   -0.0034    0.0024   -0.0015    0.0020   -0.0013
  S   C    5   -0.0530    0.0723    0.0722   -0.0441    0.0691   -0.0823   -0.0022   -0.0021
  Px  C    5   -0.1264    0.0182    0.1768    0.1460    0.1411   -0.0655    0.1402   -0.2032
  Py  C    5    0.1377   -0.2465   -0.1051    0.1881   -0.0918    0.1608    0.0605   -0.0838
  Pz  C    5    0.0082   -0.0102   -0.0086    0.0065   -0.0069    0.0085    0.0008   -0.0010
  S   C    6   -0.0018   -0.0573    0.0497    0.0586    0.0484   -0.0271    0.0066   -0.0027
  Px  C    6   -0.0434   -0.1474    0.1636    0.1265    0.1251   -0.0700    0.0112    0.0011
  Py  C    6    0.0939   -0.1271   -0.1739    0.1774   -0.1797    0.2635    0.1363   -0.2002
  Pz  C    6   -0.0013   -0.0103    0.0054    0.0105    0.0028    0.0018    0.0041   -0.0052
  S   C    7   -0.0299   -0.0181    0.0730   -0.0814   -0.0447    0.0766    0.0030    0.0127
  Px  C    7   -0.0088    0.1395   -0.1548   -0.0024   -0.0555   -0.0604    0.1755   -0.1889
  Py  C    7   -0.0811    0.0167    0.1048   -0.2267   -0.1435    0.1489    0.1117   -0.0461
  Pz  C    7   -0.0088    0.0084    0.0028   -0.0196   -0.0155    0.0109    0.0172   -0.0119
  S   C    8    0.1104   -0.0198   -0.0851   -0.0677    0.0114   -0.0909   -0.0183   -0.0294
  Px  C    8    0.2124    0.0701   -0.0162   -0.2062    0.0848   -0.1151   -0.1889    0.1039
  Py  C    8   -0.3147    0.1066    0.2256    0.0855    0.0147    0.1571   -0.0456    0.1459
  Pz  C    8    0.0299    0.0066   -0.0061   -0.0244    0.0095   -0.0171   -0.0190    0.0077
  S   C    9   -0.0126   -0.0359   -0.0333    0.0012   -0.0086   -0.0244    0.0029   -0.0038
  Px  C    9    0.3039    0.0453   -0.0793   -0.2530    0.1134   -0.1977   -0.1855    0.0723
  Py  C    9    0.1893   -0.0404    0.1411   -0.1713    0.0686    0.1930    0.3767    0.0452
  Pz  C    9    0.0173    0.0062   -0.0050   -0.0126    0.0076   -0.0147   -0.0246    0.0034
  S   C   10   -0.0015   -0.0457    0.0427   -0.0045   -0.0008    0.0310   -0.0106    0.0018
  Px  C   10   -0.1459    0.0339   -0.0826   -0.2076   -0.2136   -0.0780   -0.2283   -0.1305
  Py  C   10   -0.0469    0.0551    0.1297   -0.1483   -0.1033    0.2493    0.3525   -0.0656
  Pz  C   10   -0.0057    0.0071   -0.0043   -0.0094   -0.0091    0.0013    0.0074   -0.0059
  S   C   11    0.0509   -0.0606    0.0797    0.0683    0.0596    0.0662    0.0114    0.0073
  Px  C   11   -0.0946   -0.0231   -0.0146   -0.1793   -0.1518   -0.0169   -0.2331   -0.1311
  Py  C   11    0.0783   -0.1844    0.1761    0.0758    0.0619    0.1472   -0.0913   -0.0810
  Pz  C   11    0.0072   -0.0136    0.0135    0.0075    0.0056    0.0096   -0.0029   -0.0034
  S   H   12    0.0680   -0.0798    0.0899    0.0720    0.0772    0.0873    0.0217   -0.0096
  S   C   13   -0.1304   -0.0387   -0.0766    0.0801   -0.0369   -0.0645   -0.0147    0.0055
  Px  C   13   -0.1499   -0.1555   -0.1486   -0.0593   -0.0104   -0.1355    0.1784    0.1188
  Py  C   13    0.3440    0.0466    0.1151   -0.2360    0.0798    0.0827    0.1404    0.0265
  Pz  C   13   -0.0351   -0.0165   -0.0210    0.0101   -0.0059   -0.0169    0.0064    0.0079
  S   H   14   -0.0396   -0.0235    0.0903   -0.1029   -0.0575    0.0977    0.0159    0.0307
  S   H   15    0.1368   -0.1487   -0.0988    0.1282   -0.0237    0.0376    0.0080    0.0134
  S   H   16   -0.0454    0.1292   -0.0981   -0.0101   -0.0945    0.1000   -0.0083    0.0174
  S   H   17   -0.1033    0.1263    0.0987   -0.0517    0.0843   -0.1004    0.0088   -0.0161
  S   H   18   -0.0360   -0.0806    0.1085    0.0671    0.0827   -0.0538    0.0036    0.0050
  S   H   19    0.2204   -0.0324   -0.1165   -0.0894    0.0201   -0.1148   -0.0290   -0.0474
  S   H   20   -0.2095   -0.0635   -0.0995    0.0893   -0.0489   -0.0877   -0.0206    0.0214
  S   C   21    0.0274    0.1052   -0.0613    0.0169    0.1111    0.0426    0.0283    0.0317
  Px  C   21    0.0317   -0.0687    0.1394    0.1710   -0.1324   -0.0800    0.1083    0.1723
  Py  C   21    0.1082    0.2800   -0.0666    0.1388    0.1792    0.0601    0.0996    0.1474
  Pz  C   21    0.0050    0.0356   -0.0269   -0.0134    0.0341    0.0162   -0.0079   -0.0133
  S   C   22   -0.0489   -0.0545   -0.0462   -0.0809    0.0324    0.0131    0.0018   -0.0081
  Px  C   22    0.1941    0.1762    0.1483    0.2022   -0.0931   -0.0326   -0.0122    0.0048
  Py  C   22    0.0017    0.1453   -0.1453    0.0542    0.2784    0.0888    0.1924    0.2609
  Pz  C   22   -0.0324   -0.0261   -0.0272   -0.0305    0.0211    0.0067    0.0083    0.0077
  S   C   23    0.0064   -0.0727    0.0451   -0.0572   -0.0625   -0.0187   -0.0068   -0.0059
  Px  C   23    0.0425    0.2486    0.0348    0.2685   -0.0936   -0.0431   -0.1461   -0.1908
  Py  C   23   -0.0909    0.1381   -0.2082   -0.0037    0.2560    0.0772    0.1193    0.1476
  Pz  C   23   -0.0035   -0.0112   -0.0067   -0.0153    0.0126    0.0048    0.0123    0.0162
  S   C   24    0.0399    0.0874    0.0485    0.0640   -0.0809   -0.0370   -0.0166   -0.0177
  Px  C   24    0.0417    0.2501   -0.0075    0.2726    0.0053    0.0047   -0.1379   -0.1855
  Py  C   24   -0.1879   -0.2169   -0.1810   -0.0236    0.2479    0.1151   -0.0592   -0.0778
  Pz  C   24   -0.0070   -0.0245   -0.0042   -0.0220    0.0076    0.0040    0.0085    0.0106
  S   H   25    0.0416    0.1522   -0.0746    0.0106    0.1328    0.0601    0.0116    0.0164
  S   H   26   -0.1264   -0.1128   -0.0966   -0.1287    0.0635    0.0232    0.0089    0.0003
  S   H   27    0.0379   -0.1524    0.0985   -0.0825   -0.1026   -0.0272   -0.0124   -0.0133
  S   H   28    0.1148    0.1830    0.0967    0.0860   -0.1372   -0.0652   -0.0058   -0.0095
  S   C   29    0.0268    0.0444    0.0012    0.0631    0.0508    0.0187    0.0238    0.0281
  Px  C   29    0.0256   -0.1471    0.2053    0.1404   -0.2466   -0.1178    0.0824    0.1403
  Py  C   29    0.0718   -0.1317    0.1391   -0.0311    0.1826    0.2850   -0.2500   -0.2160
  Pz  C   29   -0.0046   -0.0013   -0.0091   -0.0176    0.0162    0.0155   -0.0193   -0.0214
  S   C   30   -0.0064    0.0444   -0.0016    0.0695   -0.0113   -0.0055   -0.0171   -0.0150
  Px  C   30   -0.2427   -0.1628   -0.2298    0.0259   -0.0276   -0.1904    0.1488    0.1064
  Py  C   30   -0.0642   -0.0435   -0.1090    0.0413    0.3529    0.2635   -0.2144   -0.2310
  Pz  C   30   -0.0060   -0.0087   -0.0074   -0.0060   -0.0039   -0.0106    0.0130    0.0101


   Root No.      81        82        83        84

                81 A      82 A      83 A      84 A   

                12.542    12.779    13.184    14.505
  
  S   C    1   -0.0494    0.0418   -0.0099    0.0354
  Px  C    1   -0.0142    0.3542    0.1040    0.1021
  Py  C    1   -0.1277   -0.1168   -0.0951    0.0228
  Pz  C    1   -0.0048   -0.0003   -0.0021    0.0017
  S   C    2   -0.0208   -0.0185   -0.0205    0.0222
  Px  C    2   -0.0570    0.3806    0.0853    0.1430
  Py  C    2   -0.0838    0.1705   -0.0081    0.1162
  Pz  C    2   -0.0048    0.0125    0.0003    0.0079
  S   C    3    0.0086   -0.0135    0.0024    0.0211
  Px  C    3   -0.1381    0.2914    0.1458    0.2156
  Py  C    3   -0.0408    0.2057   -0.0565    0.1018
  Pz  C    3   -0.0100    0.0217    0.0083    0.0152
  S   C    4    0.0140   -0.0049   -0.0088    0.0211
  Px  C    4   -0.2950   -0.0301   -0.1717    0.1871
  Py  C    4   -0.1040    0.0233   -0.2272    0.1201
  Pz  C    4   -0.0018   -0.0004   -0.0030    0.0044
  S   C    5    0.0023    0.0275    0.0072    0.0236
  Px  C    5   -0.3139   -0.0480   -0.1684    0.1600
  Py  C    5   -0.1757   -0.0923   -0.1215    0.0460
  Pz  C    5   -0.0038   -0.0029   -0.0027    0.0001
  S   C    6   -0.0553    0.0306   -0.0210    0.0350
  Px  C    6   -0.1082    0.0727   -0.0366    0.0698
  Py  C    6   -0.2588   -0.2126   -0.1939    0.0563
  Pz  C    6   -0.0110   -0.0014   -0.0058    0.0042
  S   C    7    0.0484   -0.0292    0.0059    0.0159
  Px  C    7   -0.1007    0.2650    0.1550    0.2405
  Py  C    7    0.0629    0.1070    0.0839    0.1560
  Pz  C    7   -0.0002    0.0210    0.0133    0.0232
  S   C    8    0.0415   -0.0325    0.0154    0.0102
  Px  C    8   -0.1663   -0.0960   -0.2529    0.2417
  Py  C    8   -0.1521    0.0366   -0.1701    0.1080
  Pz  C    8   -0.0135   -0.0100   -0.0214    0.0219
  S   C    9    0.0586   -0.0178    0.0070    0.0036
  Px  C    9   -0.0998   -0.1209   -0.2380    0.2518
  Py  C    9    0.2039    0.1341   -0.1497    0.1218
  Pz  C    9   -0.0167   -0.0109   -0.0127    0.0142
  S   C   10    0.0401   -0.0461    0.0175    0.0080
  Px  C   10   -0.0966   -0.0291    0.2043    0.2937
  Py  C   10    0.1155    0.2364    0.0728    0.1406
  Pz  C   10   -0.0020    0.0108    0.0063    0.0122
  S   C   11    0.0528   -0.0403    0.0220   -0.0032
  Px  C   11   -0.0441   -0.0860    0.2286    0.3004
  Py  C   11    0.0929   -0.0958    0.1643    0.1550
  Pz  C   11    0.0071   -0.0056    0.0073    0.0068
  S   H   12    0.0509   -0.0095    0.0141   -0.0069
  S   C   13    0.0478   -0.0348    0.0033   -0.0052
  Px  C   13    0.2492   -0.0578   -0.2527    0.2366
  Py  C   13    0.0626    0.0593   -0.1412    0.1362
  Pz  C   13    0.0179   -0.0082   -0.0125    0.0109
  S   H   14    0.0502   -0.0035   -0.0014    0.0136
  S   H   15   -0.0679    0.0610   -0.0129    0.0419
  S   H   16   -0.0276   -0.0063   -0.0252    0.0191
  S   H   17    0.0061    0.0300    0.0182    0.0143
  S   H   18   -0.0505    0.0484   -0.0114    0.0342
  S   H   19    0.0187   -0.0407    0.0155    0.0096
  S   H   20    0.0264   -0.0421   -0.0029   -0.0004
  S   C   21   -0.0229   -0.0149    0.0204   -0.0244
  Px  C   21    0.0804   -0.2587    0.1962    0.2206
  Py  C   21   -0.0060   -0.1782    0.1702    0.0905
  Pz  C   21   -0.0109    0.0227   -0.0150   -0.0231
  S   C   22   -0.0450    0.0436   -0.0230   -0.0461
  Px  C   22    0.1034   -0.0792    0.0316    0.0876
  Py  C   22   -0.0763   -0.2578    0.2663    0.1121
  Pz  C   22   -0.0180    0.0039    0.0032   -0.0092
  S   C   23   -0.0559    0.0338   -0.0011   -0.0413
  Px  C   23    0.2927    0.0559   -0.1873    0.0828
  Py  C   23   -0.0491   -0.1286    0.1300    0.0475
  Pz  C   23   -0.0195   -0.0076    0.0159   -0.0039
  S   C   24    0.0072    0.0169   -0.0153   -0.0247
  Px  C   24    0.3343    0.0259   -0.1804    0.1292
  Py  C   24    0.1725   -0.0271   -0.0511    0.1202
  Pz  C   24   -0.0193   -0.0012    0.0101   -0.0064
  S   H   25   -0.0240   -0.0123    0.0289   -0.0132
  S   H   26   -0.0646    0.0428   -0.0123   -0.0471
  S   H   27   -0.0624    0.0450   -0.0087   -0.0440
  S   H   28    0.0070    0.0196   -0.0268   -0.0200
  S   C   29    0.0118   -0.0217    0.0014   -0.0236
  Px  C   29    0.0859   -0.2399    0.1910    0.2527
  Py  C   29    0.0592   -0.0463    0.2088    0.1647
  Pz  C   29   -0.0056    0.0172   -0.0056   -0.0084
  S   C   30    0.0093   -0.0017    0.0161   -0.0259
  Px  C   30    0.2813   -0.0819   -0.2369    0.2142
  Py  C   30    0.1913    0.0238   -0.0163    0.1060
  Pz  C   30    0.0093   -0.0037   -0.0120    0.0100


              NET ATOMIC CHARGES AND DIPOLE CONTRIBUTIONS

  ATOM NO.   TYPE          CHARGE      No. of ELECS.   s-Pop       p-Pop       
    1          C          -0.025161        4.0252     1.08393     2.94123
    2          C          -0.024569        4.0246     1.09614     2.92843
    3          C           0.013518        3.9865     1.06966     2.91683
    4          C           0.012476        3.9875     1.06944     2.91808
    5          C          -0.034594        4.0346     1.10871     2.92588
    6          C          -0.034066        4.0341     1.10049     2.93358
    7          C          -0.037551        4.0376     1.10894     2.92861
    8          C          -0.034788        4.0348     1.10017     2.93461
    9          C           0.007910        3.9921     1.07566     2.91643
   10          C           0.016938        3.9831     1.06537     2.91769
   11          C          -0.027316        4.0273     1.09641     2.93091
   12          H           0.013400        0.9866     0.98660
   13          C          -0.034086        4.0341     1.11112     2.92297
   14          H           0.024700        0.9753     0.97530
   15          H           0.030354        0.9696     0.96965
   16          H           0.022656        0.9773     0.97734
   17          H           0.023963        0.9760     0.97604
   18          H           0.024211        0.9758     0.97579
   19          H           0.031705        0.9683     0.96829
   20          H           0.020588        0.9794     0.97941
   21          C          -0.016681        4.0167     1.08670     2.92998
   22          C          -0.022330        4.0223     1.07678     2.94555
   23          C          -0.031492        4.0315     1.09210     2.93939
   24          C          -0.033693        4.0337     1.10060     2.93310
   25          H           0.012959        0.9870     0.98704
   26          H           0.024689        0.9753     0.97531
   27          H           0.031566        0.9684     0.96843
   28          H           0.027644        0.9724     0.97236
   29          C           0.012438        3.9876     1.06893     2.91864
   30          C           0.004609        3.9954     1.08438     2.91102
 DIPOLE           X         Y         Z       TOTAL
 POINT-CHG.    -0.001     0.056    -0.083     0.100
 HYBRID        -0.185     0.154    -0.473     0.531
 SUM           -0.186     0.210    -0.556     0.623


          ATOMIC ORBITAL ELECTRON POPULATIONS

     Atom    s        px        py        pz   
    1  C   1.08393   0.97697   0.96770   0.99656
    2  C   1.09614   0.97922   0.94000   1.00920
    3  C   1.06966   0.96873   0.96179   0.98631
    4  C   1.06944   0.96996   0.96820   0.97993
    5  C   1.10871   0.97198   0.95100   1.00289
    6  C   1.10049   0.94655   0.98951   0.99752
    7  C   1.10894   0.96638   0.94595   1.01628
    8  C   1.10017   0.96953   0.95328   1.01180
    9  C   1.07566   0.96804   0.96870   0.97969
   10  C   1.06537   0.96590   0.96599   0.98580
   11  C   1.09641   0.95816   0.95239   1.02035
   12  H   0.98660
   13  C   1.11112   0.96416   0.95039   1.00843
   14  H   0.97530
   15  H   0.96965
   16  H   0.97734
   17  H   0.97604
   18  H   0.97579
   19  H   0.96829
   20  H   0.97941
   21  C   1.08670   0.96746   0.96129   1.00124
   22  C   1.07678   0.96014   0.98957   0.99585
   23  C   1.09210   0.98421   0.95574   0.99944
   24  C   1.10060   0.97841   0.95107   1.00361
   25  H   0.98704
   26  H   0.97531
   27  H   0.96843
   28  H   0.97236
   29  C   1.06893   0.96704   0.97039   0.98121
   30  C   1.08438   0.96907   0.96388   0.97806

 **********************
 *                    *
 * JOB ENDED NORMALLY *
 *                    *
 **********************



 TOTAL JOB TIME:             2.29 SECONDS

 == MOPAC DONE ==


          MOPAC Job: "./tetraceneTraj/tetracene_1034.mop" ended normally on Feb 15, 2023, at 11:29.

rm: cannot remove ./tetraceneTraj/tetracene_1034.cim: No such file or directory
rm: cannot remove ./tetraceneTraj/tetracene_1034.end: No such file or directory
rm: cannot remove ./tetraceneTraj/tetracene_1034.log: No such file or directory
rm: cannot remove ./tetraceneTraj/tetracene_1034.temp: No such file or directory
rm: cannot remove ./tetraceneTraj/tetracene_1034.ple: No such file or directory
rm: cannot remove ./tetraceneTraj/tetracene_1034.sts: No such file or directory
