 *******************************************************************************
 ** Site#:    0         For non-commercial use only    Version 20.173L 64BITS **
 *******************************************************************************
 ** Cite this program as: MOPAC2016, Version: 20.173L, James J. P. Stewart,   **
 ** Stewart Computational Chemistry, web-site: HTTP://OpenMOPAC.net.          **
 *******************************************************************************
 **                                                                           **
 **                                MOPAC2016                                  **
 **                                                                           **
 *******************************************************************************

                              INDO CALCULATION RESULTS

 *******************************************************************************
 *  CALCULATION DONE:                                Wed Feb 15 11:22:31 2023  *
 *  INDO       - The INDO Hamiltonian to be used
 *
 *
 *
 *                 CHARGE ON SYSTEM = 0
 *
 *
 *
 *  C.I.=(N,M) - 3 DOUBLY FILLED LEVELS USED IN A C.I. INVOLVING 6 M.O.'S
 *  T=         - A TIME OF 172800.0 SECONDS REQUESTED
 *  DUMP=N     - RESTART FILE WRITTEN EVERY 7200.0 SECONDS REQUESTED
 *  RELSCF     - DEFAULT SCF CRITERION MULTIPLIED BY 0.0000
 *              (DEFAULT SCF CRITERION = 0.00010)
 *  ALLVEC     - PRINT ALL EIGENVECTORS
 **********
 *  WARNING: Specified print options may not behave as expected with INDO
 **********
 *******************************************************************************
INDO C.I.=(6,3) AllVEC CHARGE=0 RELSCF=0.000001


   ATOM   CHEMICAL          X               Y               Z
  NUMBER   SYMBOL      (ANGSTROMS)     (ANGSTROMS)     (ANGSTROMS)
 
     1       C         18.58990421  *  19.48888872  *  22.37784602  *
     2       C         19.95373705  *  19.39479067  *  22.46080531  *
     3       C         20.71123645  *  20.63892769  *  22.48932251  *
     4       C         19.95763629  *  21.96374751  *  22.47880288  *
     5       C         18.51989963  *  21.97077682  *  22.47384945  *
     6       C         17.87349071  *  20.74874651  *  22.39667614  *
     7       C         22.11260006  *  20.62661557  *  22.44736918  *
     8       C         20.71256705  *  23.14086513  *  22.50558360  *
     9       C         22.13644116  *  23.13044604  *  22.50076922  *
    10       C         22.83815448  *  21.86099839  *  22.45710810  *
    11       C         24.25478873  *  21.85809146  *  22.51121371  *
    12       H         24.82303774  *  20.92064557  *  22.50790183  *
    13       C         22.88600287  *  24.32745073  *  22.51949124  *
    14       H         22.69221219  *  19.70948661  *  22.39026212  *
    15       H         17.98235845  *  18.58800560  *  22.22613405  *
    16       H         20.47682498  *  18.41388887  *  22.43079313  *
    17       H         17.99636295  *  22.93082311  *  22.47860690  *
    18       H         16.77764128  *  20.74632086  *  22.41809555  *
    19       H         20.13945276  *  24.07583509  *  22.43904780  *
    20       H         22.26838334  *  25.22219032  *  22.72591481  *
    21       C         26.47151479  *  23.08132494  *  22.56061944  *
    22       C         27.17242805  *  24.27398318  *  22.57518189  *
    23       C         26.45299412  *  25.54460862  *  22.61799648  *
    24       C         25.05755364  *  25.57454233  *  22.60485396  *
    25       H         27.05299171  *  22.11781197  *  22.38438989  *
    26       H         28.25957668  *  24.33687436  *  22.51944822  *
    27       H         27.04160709  *  26.43664221  *  22.58904045  *
    28       H         24.53048285  *  26.54287683  *  22.57295420  *
    29       C         24.99462069  *  23.03051662  *  22.51817875  *
    30       C         24.30099207  *  24.34120167  *  22.53098909  *
 


          CARTESIAN COORDINATES 

    NO.       ATOM           X           Y           Z

     1         C         18.5899     19.4889     22.3778
     2         C         19.9537     19.3948     22.4608
     3         C         20.7112     20.6389     22.4893
     4         C         19.9576     21.9637     22.4788
     5         C         18.5199     21.9708     22.4738
     6         C         17.8735     20.7487     22.3967
     7         C         22.1126     20.6266     22.4474
     8         C         20.7126     23.1409     22.5056
     9         C         22.1364     23.1304     22.5008
    10         C         22.8382     21.8610     22.4571
    11         C         24.2548     21.8581     22.5112
    12         H         24.8230     20.9206     22.5079
    13         C         22.8860     24.3275     22.5195
    14         H         22.6922     19.7095     22.3903
    15         H         17.9824     18.5880     22.2261
    16         H         20.4768     18.4139     22.4308
    17         H         17.9964     22.9308     22.4786
    18         H         16.7776     20.7463     22.4181
    19         H         20.1395     24.0758     22.4390
    20         H         22.2684     25.2222     22.7259
    21         C         26.4715     23.0813     22.5606
    22         C         27.1724     24.2740     22.5752
    23         C         26.4530     25.5446     22.6180
    24         C         25.0576     25.5745     22.6049
    25         H         27.0530     22.1178     22.3844
    26         H         28.2596     24.3369     22.5194
    27         H         27.0416     26.4366     22.5890
    28         H         24.5305     26.5429     22.5730
    29         C         24.9946     23.0305     22.5182
    30         C         24.3010     24.3412     22.5310

           Empirical Formula: C18 H12  =    30 atoms



      MOLECULAR POINT GROUP   :   C2  


      RHF CALCULATION, NO. OF DOUBLY OCCUPIED LEVELS = 42

 WARNING: INDO only performs single-point calculations
  SCF CRITERION =    0.1000E-09

 Summary of symmetry occupancy in each shell:

 SHELL     
    1   42
    v   42
 TOTAL  84




    ROOT NO.    1           2           3           4           5           6

           -44.76075   -42.86692   -40.46998   -37.00323   -35.95267   -34.19994
  
  
  S  C   1   0.11596     0.23692     0.25640    -0.25451     0.06724    -0.14403
 PX  C   1   0.03055     0.05319     0.04145    -0.01135     0.05722    -0.09004
 PY  C   1   0.04054     0.07830     0.07640    -0.05722    -0.02834     0.04680
 PZ  C   1   0.00242     0.00463     0.00431    -0.00248     0.00074    -0.00120
  
  S  C   2   0.14128     0.24516     0.20495    -0.12366     0.20201    -0.28908
 PX  C   2  -0.00497    -0.03549    -0.07117     0.10610     0.04568    -0.01667
 PY  C   2   0.05716     0.08951     0.05867    -0.00548     0.02530    -0.01897
 PZ  C   2  -0.00175    -0.00374    -0.00431     0.00484    -0.00250     0.00498
  
  S  C   3   0.25667     0.29422     0.06435     0.15773     0.21414    -0.18957
 PX  C   3   0.00903    -0.06059    -0.13153     0.13419     0.09220    -0.03599
 PY  C   3   0.05246     0.01987    -0.06117     0.10587    -0.09607     0.12676
 PZ  C   3  -0.00360    -0.00499    -0.00237    -0.00065    -0.00517     0.00518
  
  S  C   4   0.25921     0.30080     0.07044     0.17740    -0.18817     0.20566
 PX  C   4   0.04831    -0.01626    -0.12189     0.15673     0.05405    -0.09002
 PY  C   4  -0.01819    -0.05870    -0.07791     0.07348    -0.12293     0.10140
 PZ  C   4   0.00015    -0.00082    -0.00198     0.00284    -0.00128     0.00092
  
  S  C   5   0.14487     0.25100     0.20792    -0.10019    -0.21138     0.28995
 PX  C   5   0.04786     0.06052     0.01442     0.05582    -0.03981     0.03536
 PY  C   5  -0.03271    -0.07470    -0.08971     0.09563    -0.02181     0.01835
 PZ  C   5  -0.00167    -0.00364    -0.00426     0.00449     0.00149    -0.00244
  
  S  C   6   0.11569     0.23639     0.25549    -0.24546    -0.08458     0.11562
 PX  C   6   0.05074     0.09516     0.08767    -0.05512    -0.00819     0.00395
 PY  C   6   0.00539     0.00549    -0.00380     0.02638    -0.06167     0.10704
 PZ  C   6   0.00227     0.00444     0.00435    -0.00297    -0.00289     0.00472
  
  S  C   7   0.23902     0.13157    -0.14142     0.21618     0.34716    -0.12981
 PX  C   7  -0.02739    -0.07373    -0.03722    -0.07896     0.00724     0.08527
 PY  C   7   0.08169     0.01397    -0.08244     0.06404     0.00569     0.04611
 PZ  C   7   0.00234     0.00065    -0.00207     0.00232     0.00068    -0.00012
  
  S  C   8   0.24418     0.13874    -0.13856     0.25424    -0.31210     0.13172
 PX  C   8   0.05310    -0.03073    -0.09128     0.01007    -0.00203    -0.10139
 PY  C   8  -0.06712    -0.07088     0.01181    -0.10000    -0.02038    -0.04914
 PZ  C   8  -0.00282    -0.00259     0.00109    -0.00403     0.00331    -0.00338
  
  S  C   9   0.34825    -0.01473    -0.28011     0.02573    -0.22504    -0.06345
 PX  C   9   0.03374    -0.09279    -0.01843    -0.19497     0.06567    -0.04357
 PY  C   9  -0.04887    -0.04680     0.04172    -0.09808    -0.13999    -0.06264
 PZ  C   9  -0.00088    -0.00157     0.00112    -0.00294    -0.00323    -0.00267
  
  S  C  10   0.34799    -0.01570    -0.28186     0.00176     0.22242     0.03880
 PX  C  10  -0.02258    -0.08909     0.02430    -0.19651     0.05496     0.07732
 PY  C  10   0.05473    -0.05314    -0.03671    -0.10001    -0.14880    -0.00032
 PZ  C  10   0.00618    -0.00199    -0.00488    -0.00333     0.00079     0.00110
  
  S  C  11   0.25422    -0.14988    -0.13074    -0.24136     0.26825     0.23989
 PX  C  11  -0.05656    -0.01788     0.09319     0.00209    -0.02170     0.07001
 PY  C  11   0.07292    -0.07373    -0.00491    -0.10346    -0.03159     0.02969
 PZ  C  11  -0.00172     0.00007     0.00254     0.00147    -0.00370    -0.00121
  
  S  H  12   0.07693    -0.04496    -0.03579    -0.06877     0.14177     0.12347
  
  S  C  13   0.25172    -0.14723    -0.12493    -0.19699    -0.29982    -0.24165
 PX  C  13   0.02902    -0.07144     0.04938    -0.08271     0.03103    -0.05177
 PY  C  13  -0.08758     0.02466     0.08272     0.06033     0.01428    -0.03201
 PZ  C  13   0.00242    -0.00239     0.00012    -0.00212    -0.00774    -0.00791
  
  S  H  14   0.07464     0.03776    -0.04306     0.05377     0.17278    -0.05884
  
  S  H  15   0.03004     0.06573     0.07891    -0.09446     0.02776    -0.06343
  
  S  H  16   0.04136     0.06887     0.05410    -0.03045     0.09861    -0.13468
  
  S  H  17   0.04459     0.07370     0.05639    -0.01805    -0.10550     0.14170
  
  S  H  18   0.02993     0.06536     0.07811    -0.08976    -0.03616     0.05352
  
  S  H  19   0.07551     0.04467    -0.03665     0.07473    -0.16364     0.07116
  
  S  H  20   0.07765    -0.03985    -0.03947    -0.04328    -0.15251    -0.11484
  
  S  C  21   0.13720    -0.21771     0.23515     0.10554     0.13954     0.27496
 PX  C  21  -0.04697     0.05486    -0.01783     0.05862    -0.02489    -0.03669
 PY  C  21   0.03109    -0.06457     0.10050     0.09566    -0.01327    -0.02250
 PZ  C  21  -0.00212     0.00301    -0.00242     0.00055    -0.00428    -0.00855
  
  S  C  22   0.10603    -0.19930     0.28307     0.25081     0.06571     0.11795
 PX  C  22  -0.04779     0.08248    -0.09981    -0.05731    -0.00931    -0.00930
 PY  C  22  -0.00334     0.00158     0.00852     0.02911    -0.03341    -0.08825
 PZ  C  22  -0.00046     0.00073    -0.00070     0.00003    -0.00141    -0.00333
  
  S  C  23   0.10712    -0.20160     0.28724     0.26030    -0.02346    -0.10810
 PX  C  23  -0.02814     0.04526    -0.04673    -0.01103     0.03405     0.08094
 PY  C  23  -0.03853     0.06843    -0.08756    -0.06000    -0.01989    -0.04306
 PZ  C  23  -0.00220     0.00411    -0.00563    -0.00453    -0.00001     0.00078
  
  S  C  24   0.13910    -0.22176     0.24353     0.13043    -0.12517    -0.27434
 PX  C  24   0.00206    -0.02625     0.07482     0.10511     0.04276     0.04188
 PY  C  24  -0.05657     0.08087    -0.06833    -0.00254     0.01553     0.01733
 PZ  C  24  -0.00276     0.00419    -0.00386    -0.00048     0.00233     0.00455
  
  S  H  25   0.03950    -0.06041     0.06167     0.02218     0.06704     0.13170
  
  S  H  26   0.02712    -0.05468     0.08635     0.09267     0.02601     0.04999
  
  S  H  27   0.02841    -0.05724     0.09044     0.09883    -0.01034    -0.04884
  
  S  H  28   0.04165    -0.06422     0.06758     0.03515    -0.06601    -0.13675
  
  S  C  29   0.26787    -0.28717     0.09400    -0.18593     0.13392     0.22638
 PX  C  29  -0.06061     0.00593     0.11976     0.15189     0.03221     0.07296
 PY  C  29   0.02044    -0.05521     0.08960     0.06629    -0.09498    -0.12611
 PZ  C  29   0.00131    -0.00270     0.00365     0.00183    -0.00092    -0.00066
  
  S  C  30   0.26587    -0.29027     0.10919    -0.14987    -0.15540    -0.21442
 PX  C  30  -0.01289    -0.04490     0.13781     0.12660     0.08001     0.07172
 PY  C  30  -0.06072     0.03154     0.05985     0.10989    -0.06383    -0.13298
 PZ  C  30   0.00117    -0.00270     0.00408     0.00280    -0.00315    -0.00539




    ROOT NO.    7           8           9          10          11          12

           -31.95260   -31.34346   -28.88989   -28.29477   -27.00724   -26.11919
  
  
  S  C   1  -0.18269     0.22652     0.20474     0.24825    -0.00477    -0.18999
 PX  C   1  -0.09484    -0.10351     0.09930    -0.17855     0.01747    -0.06042
 PY  C   1   0.06590     0.03159    -0.10337    -0.00506    -0.07387     0.12228
 PZ  C   1  -0.00060    -0.00436    -0.00117    -0.01153    -0.00267     0.00506
  
  S  C   2  -0.25370    -0.08548     0.16583    -0.15028     0.11370    -0.04409
 PX  C   2   0.05107    -0.12870    -0.14579    -0.11422     0.06284     0.18235
 PY  C   2   0.01503    -0.06852    -0.07091    -0.08547    -0.09260     0.11365
 PZ  C   2   0.00668    -0.00488    -0.00922    -0.00592    -0.00277     0.01085
  
  S  C   3  -0.04147    -0.25029    -0.12657    -0.12682    -0.10664     0.19314
 PX  C   3   0.06346     0.02500    -0.13430     0.13800     0.09454     0.05771
 PY  C   3   0.07838     0.01046     0.01774     0.11437    -0.19005    -0.07959
 PZ  C   3   0.00178     0.00224     0.00237     0.00053    -0.00196    -0.00242
  
  S  C   4   0.07976    -0.23288     0.11763    -0.11236    -0.11505    -0.16330
 PX  C   4  -0.10622    -0.00952     0.05610     0.17031    -0.11465     0.05404
 PY  C   4  -0.00973     0.01148     0.12744     0.07086     0.17277    -0.13381
 PZ  C   4  -0.00068    -0.00235     0.00293    -0.00000    -0.00138    -0.00257
  
  S  C   5   0.26306    -0.00778    -0.16476    -0.15344     0.11222     0.01666
 PX  C   5  -0.01743    -0.13768     0.13289    -0.12215    -0.04998    -0.17372
 PY  C   5  -0.01818    -0.08398     0.09027    -0.04691     0.10419    -0.12605
 PZ  C   5  -0.00367    -0.00517     0.00628    -0.00285    -0.00043    -0.00624
  
  S  C   6   0.13841     0.27886    -0.20324     0.24000    -0.00442     0.19000
 PX  C   6  -0.00459    -0.02753     0.03362    -0.09202    -0.05515    -0.05314
 PY  C   6   0.12934    -0.06433    -0.13974    -0.15371     0.05261     0.10467
 PZ  C   6   0.00597    -0.00006    -0.00752    -0.00588    -0.00001     0.00708
  
  S  C   7   0.17483     0.00254    -0.23559     0.09635     0.19521    -0.00019
 PX  C   7   0.09667     0.15507     0.06691     0.02324     0.12524    -0.20062
 PY  C   7   0.05216     0.09243     0.02864     0.10703    -0.15556    -0.09772
 PZ  C   7   0.00020    -0.00046    -0.00033     0.00076    -0.00559     0.00207
  
  S  C   8  -0.16838    -0.03196     0.23524     0.12360     0.17362    -0.01830
 PX  C   8  -0.12198     0.14423    -0.06616     0.09603    -0.06304     0.20973
 PY  C   8  -0.06207     0.07109    -0.03298    -0.04279     0.19424     0.09478
 PZ  C   8   0.00074     0.00119    -0.00462    -0.00196    -0.00202     0.00259
  
  S  C   9  -0.22345     0.22494    -0.00981     0.01717    -0.07446     0.17273
 PX  C   9   0.07573     0.03447    -0.10069    -0.17922    -0.12274    -0.07319
 PY  C   9  -0.11582    -0.03159    -0.06143    -0.10898     0.23369     0.10721
 PZ  C   9  -0.00199    -0.00173    -0.00308    -0.00293     0.00837     0.00218
  
  S  C  10   0.17975     0.25951     0.01060     0.01823    -0.08621    -0.18252
 PX  C  10   0.06281     0.00103     0.11457    -0.17687     0.11728    -0.06537
 PY  C  10  -0.13440     0.02293     0.05323    -0.08962    -0.22780     0.10479
 PZ  C  10   0.00082     0.00374     0.00235    -0.00327    -0.00520    -0.00047
  
  S  C  11   0.11991     0.02019     0.25047    -0.11376     0.16127     0.03435
 PX  C  11  -0.11185    -0.16673     0.04852     0.07507     0.07041     0.21816
 PY  C  11  -0.06338    -0.07943     0.02175    -0.03949    -0.18460     0.09816
 PZ  C  11  -0.00384    -0.00451    -0.00118     0.00295    -0.00332     0.00609
  
  S  H  12   0.05443    -0.00062     0.12202    -0.01339     0.20777     0.03463
  
  S  C  13  -0.11767     0.00170    -0.23115    -0.13409     0.17907    -0.01277
 PX  C  13   0.14345    -0.13848    -0.04853     0.00720    -0.13142    -0.20684
 PY  C  13   0.07775    -0.08602    -0.02075     0.08160     0.14826    -0.09180
 PZ  C  13  -0.00129    -0.00287    -0.00793     0.00001     0.01753    -0.00158
  
  S  H  14   0.08958     0.00277    -0.10497     0.00163     0.22818    -0.01514
  
  S  H  15  -0.09007     0.12826     0.11906     0.18438     0.02784    -0.13724
  
  S  H  16  -0.11474    -0.04151     0.07528    -0.06237     0.12897    -0.03124
  
  S  H  17   0.12257    -0.00860    -0.06943    -0.06690     0.13256    -0.00923
  
  S  H  18   0.06993     0.15185    -0.12033     0.17325     0.03031     0.12872
  
  S  H  19  -0.07341    -0.02368     0.11470     0.00867     0.21699    -0.02710
  
  S  H  20  -0.06685     0.00331    -0.10175    -0.02881     0.21829     0.01912
  
  S  C  21  -0.30435    -0.06886    -0.18526     0.14288     0.11345    -0.02408
 PX  C  21  -0.03452     0.14306    -0.11954    -0.12581     0.03203    -0.18755
 PY  C  21  -0.02381     0.07431    -0.07930    -0.03479    -0.08691    -0.12159
 PZ  C  21   0.00820     0.00473     0.00340    -0.00573    -0.00793    -0.00292
  
  S  C  22  -0.20866     0.25492    -0.19026    -0.22517    -0.01774    -0.20136
 PX  C  22  -0.00119     0.03026    -0.02001    -0.09512     0.03091    -0.05313
 PY  C  22   0.12294     0.09684     0.14585    -0.13755    -0.06400     0.10886
 PZ  C  22   0.00461     0.00161     0.00494    -0.00211    -0.00315     0.00397
  
  S  C  23   0.14470     0.27582     0.22045    -0.22356    -0.03174     0.19733
 PX  C  23  -0.12228     0.08745    -0.09308    -0.17001    -0.03262    -0.06860
 PY  C  23   0.07712    -0.01385     0.10303    -0.01142     0.05270     0.12071
 PZ  C  23  -0.00069    -0.00339    -0.00067     0.00242     0.00093     0.00051
  
  S  C  24   0.31475    -0.03639     0.17534     0.14182     0.10468     0.04496
 PX  C  24   0.00401     0.13820     0.13705    -0.08656    -0.06559     0.18513
 PY  C  24   0.00541     0.08532     0.08225    -0.08725     0.06871     0.11506
 PZ  C  24  -0.00439     0.00476     0.00177    -0.00544    -0.00042     0.00628
  
  S  H  25  -0.14148    -0.02768    -0.08238     0.04970     0.11492    -0.00612
  
  S  H  26  -0.09971     0.14508    -0.10221    -0.17258     0.00675    -0.13126
  
  S  H  27   0.07078     0.15819     0.13216    -0.17395    -0.00127     0.14053
  
  S  H  28   0.15312    -0.01314     0.08766     0.05003     0.11271     0.03037
  
  S  C  29  -0.08593    -0.26014     0.09637     0.11131    -0.08290     0.18425
 PX  C  29  -0.10989    -0.02800    -0.05962     0.16541     0.11805     0.06147
 PY  C  29   0.01780    -0.03990    -0.13477     0.08336    -0.15004    -0.13757
 PZ  C  29  -0.00071    -0.00331    -0.00105     0.00475    -0.00135     0.00187
  
  S  C  30   0.13290    -0.24970    -0.12237     0.10765    -0.08398    -0.19559
 PX  C  30   0.03827    -0.03649     0.11644     0.16210    -0.06499     0.07367
 PY  C  30   0.11242     0.01271    -0.00543     0.09043     0.17658    -0.08495
 PZ  C  30   0.00404    -0.00249    -0.00045     0.00568     0.00630    -0.00181




    ROOT NO.   13          14          15          16          17          18

           -25.08723   -24.07795   -22.80122   -21.47332   -20.69511   -19.20671
  
  
  S  C   1  -0.00842     0.11862    -0.01509    -0.17018    -0.03058    -0.00381
 PX  C   1   0.00945    -0.24248    -0.00802     0.03511     0.21238     0.16887
 PY  C   1  -0.14188     0.00854    -0.18361     0.13103    -0.14512     0.18556
 PZ  C   1  -0.00651    -0.01698    -0.00985     0.01687     0.00875     0.02564
  
  S  C   2   0.15587    -0.18494     0.11957     0.12493     0.10943     0.02779
 PX  C   2   0.09188     0.03789     0.07559     0.16437    -0.14528    -0.12901
 PY  C   2  -0.16842     0.01128    -0.18706     0.08687    -0.16104     0.07730
 PZ  C   2  -0.00478     0.00048    -0.00475     0.01377    -0.00892    -0.00165
  
  S  C   3  -0.10041     0.10574     0.00374     0.08592    -0.06881    -0.15942
 PX  C   3   0.16791     0.14793     0.14739    -0.11775    -0.01290    -0.03654
 PY  C   3  -0.18525     0.08919    -0.01669    -0.13219     0.15553    -0.09578
 PZ  C   3  -0.00240    -0.00121     0.00047     0.00407     0.00245    -0.00863
  
  S  C   4  -0.13085     0.09707    -0.02487    -0.10026    -0.04598    -0.14951
 PX  C   4  -0.06369     0.15937     0.08374     0.16528     0.08728    -0.07202
 PY  C   4   0.22214     0.07743     0.12750     0.01815    -0.09617     0.03874
 PZ  C   4  -0.00160     0.00313     0.00208     0.00130     0.00164    -0.01175
  
  S  C   5   0.15239    -0.18526     0.10352    -0.11753     0.13390     0.00099
 PX  C   5  -0.12135     0.02191    -0.14999    -0.16551    -0.17634    -0.01560
 PY  C   5   0.15715     0.02177     0.14736    -0.11576    -0.02285    -0.16946
 PZ  C   5  -0.00084     0.00190     0.00058    -0.00381    -0.00274    -0.00912
  
  S  C   6   0.01313     0.12681     0.01385     0.16761    -0.06021     0.02452
 PX  C   6  -0.12676    -0.11898    -0.18006    -0.11060     0.00638     0.21990
 PY  C   6   0.09153    -0.20565     0.09802     0.06355     0.24690     0.05136
 PZ  C   6  -0.00008    -0.01097    -0.00032     0.00821     0.01179     0.00903
  
  S  C   7   0.11978     0.10733    -0.07841    -0.20110    -0.05529     0.13502
 PX  C   7  -0.01205    -0.13549    -0.18746    -0.05418     0.02975     0.18316
 PY  C   7  -0.11171    -0.08297     0.03660    -0.02922     0.22004    -0.01514
 PZ  C   7  -0.00276     0.00115     0.00603     0.00515     0.00507    -0.01574
  
  S  C   8   0.11202     0.10113    -0.05050     0.21442    -0.08118     0.16413
 PX  C   8  -0.07381    -0.14839    -0.04917     0.06945     0.20134     0.07796
 PY  C   8   0.07151    -0.06914    -0.15618     0.05450    -0.10354     0.14186
 PZ  C   8  -0.00561    -0.00165    -0.00147    -0.00404     0.00836    -0.01314
  
  S  C   9   0.01746    -0.22156     0.01873     0.00171     0.00506     0.01265
 PX  C   9   0.01431    -0.04810     0.09473    -0.18358    -0.16812    -0.15860
 PY  C   9  -0.00986     0.07713    -0.20610    -0.08396    -0.08137    -0.08955
 PZ  C   9  -0.00506     0.00495    -0.00842    -0.00343     0.00717    -0.01678
  
  S  C  10  -0.00867    -0.22265     0.01476     0.00041     0.00113     0.01532
 PX  C  10  -0.01178     0.03051    -0.10511     0.17070    -0.18282    -0.14143
 PY  C  10   0.03189    -0.08614     0.20467     0.07882    -0.11049    -0.08200
 PZ  C  10  -0.00166    -0.00278     0.00323     0.00597     0.00073    -0.01634
  
  S  C  11  -0.13820     0.08998    -0.03779     0.21248     0.05347    -0.16431
 PX  C  11  -0.07290     0.15974     0.06737    -0.05637     0.19837     0.04542
 PY  C  11   0.10519     0.06723     0.15302    -0.06011    -0.10911     0.11820
 PZ  C  11   0.00122     0.00370     0.00178    -0.00309     0.00836    -0.00510
  
  S  H  12  -0.15397     0.06092    -0.08061     0.11559     0.15801    -0.13780
  
  S  C  13  -0.13565     0.10887    -0.06290    -0.19690     0.07415    -0.15262
 PX  C  13   0.01620     0.14988     0.17847     0.06093     0.01252     0.16210
 PY  C  13  -0.12934     0.09844    -0.02548     0.03734     0.20628    -0.01342
 PZ  C  13  -0.01377     0.00765    -0.01123    -0.00730     0.02202    -0.02267
  
  S  H  14   0.11644     0.05533    -0.12627    -0.09941    -0.14076     0.14714
  
  S  H  15   0.06538     0.14488     0.09674    -0.17809    -0.01650    -0.19235
  
  S  H  16   0.20176    -0.08865     0.19057     0.06068     0.10539    -0.07519
  
  S  H  17   0.20491    -0.08900     0.18410    -0.07127     0.11024    -0.09666
  
  S  H  18   0.08539     0.14229     0.12692     0.16435    -0.03726    -0.15435
  
  S  H  19   0.12393     0.06131    -0.09352     0.10922    -0.16945     0.14036
  
  S  H  20  -0.14054     0.05686    -0.11354    -0.09504     0.14491    -0.14788
  
  S  C  21  -0.16407    -0.18024     0.11973    -0.14531    -0.11503     0.00674
 PX  C  21  -0.12262    -0.01732     0.15544     0.13811    -0.19410    -0.02564
 PY  C  21   0.13957    -0.03644    -0.16188     0.12532    -0.03647    -0.17910
 PZ  C  21   0.01410     0.00503    -0.01740     0.01132     0.00767    -0.02064
  
  S  C  22  -0.01505     0.12133     0.01241     0.17486     0.03626    -0.02560
 PX  C  22  -0.10202     0.13952     0.17712     0.09118     0.01930     0.24477
 PY  C  22   0.11825     0.19752    -0.11681    -0.02491     0.24308     0.03700
 PZ  C  22   0.00725     0.00253    -0.01083    -0.00134     0.00747    -0.01511
  
  S  C  23   0.04477     0.11271    -0.02106    -0.16466     0.03910    -0.00720
 PX  C  23   0.03053     0.24482    -0.00149    -0.00786     0.21527     0.17298
 PY  C  23  -0.11500     0.01344     0.19328    -0.16124    -0.10935     0.21158
 PZ  C  23  -0.00105    -0.00242    -0.00011    -0.00143    -0.00263    -0.00754
  
  S  C  24  -0.16262    -0.17697     0.13153     0.10660    -0.11690    -0.02009
 PX  C  24   0.11227    -0.05471    -0.09137    -0.16599    -0.12778    -0.15333
 PY  C  24  -0.14979    -0.00269     0.20836    -0.11313    -0.15448     0.08077
 PZ  C  24   0.00128     0.00055    -0.00234    -0.00840    -0.00321    -0.01154
  
  S  H  25  -0.19933    -0.07529     0.20292    -0.09381    -0.10301     0.10359
  
  S  H  26  -0.06630     0.16023     0.11949     0.15357     0.04369     0.17466
  
  S  H  27  -0.02536     0.15388     0.09544    -0.18368     0.04146     0.20259
  
  S  H  28  -0.20233    -0.07460     0.21542     0.03736    -0.10997     0.09174
  
  S  C  29   0.13090     0.10000    -0.02327    -0.09552     0.06116     0.14533
 PX  C  29  -0.08148    -0.14983    -0.06848    -0.15860     0.11452    -0.04117
 PY  C  29   0.22019    -0.08052    -0.15411    -0.02360    -0.07413     0.06593
 PZ  C  29   0.00470    -0.00109    -0.00892    -0.00210     0.00890    -0.01094
  
  S  C  30   0.09459     0.11181    -0.01670     0.09606     0.07096     0.15005
 PX  C  30   0.14926    -0.16197    -0.16080     0.11203    -0.01324    -0.01232
 PY  C  30  -0.21280    -0.07990     0.04050     0.14165     0.13119    -0.08769
 PZ  C  30  -0.00459    -0.00308    -0.00703     0.00526     0.01136    -0.01603




    ROOT NO.   19          20          21          22          23          24

           -18.41355   -17.26144   -17.03651   -16.61336   -15.82816   -15.48911
  
  
  S  C   1  -0.15729    -0.01992    -0.09021    -0.07800    -0.04329     0.03430
 PX  C   1   0.09132     0.16156    -0.09022    -0.02156    -0.16483     0.18673
 PY  C   1   0.09372    -0.18319     0.03107     0.05881    -0.14908     0.06876
 PZ  C   1   0.02745     0.00202    -0.00283     0.01181    -0.02446     0.03965
  
  S  C   2   0.16029    -0.01399     0.03484     0.06268    -0.00207     0.03526
 PX  C   2   0.08608    -0.17967     0.14734     0.08647     0.17529    -0.16750
 PY  C   2  -0.05191    -0.16385    -0.26339    -0.14134     0.05946     0.25402
 PZ  C   2   0.01436    -0.01293    -0.00140     0.00894     0.01268     0.01585
  
  S  C   3  -0.03550    -0.00022    -0.20348    -0.07383     0.10593    -0.02494
 PX  C   3  -0.16774    -0.02544    -0.02940    -0.00234    -0.21992    -0.19032
 PY  C   3  -0.01249     0.28786     0.04446     0.01103     0.01934    -0.07273
 PZ  C   3   0.01037     0.00050    -0.00150     0.00997     0.01718     0.01266
  
  S  C   4   0.06954     0.08036     0.20456     0.07559     0.09398     0.02454
 PX  C   4   0.16867     0.18967    -0.09433    -0.06765    -0.05156     0.18546
 PY  C   4   0.07864    -0.15433     0.08295     0.03837    -0.17913     0.10603
 PZ  C   4   0.00828     0.00446     0.00164     0.00915     0.01744     0.02597
  
  S  C   5  -0.16220    -0.00956    -0.03215    -0.05883     0.00340    -0.04468
 PX  C   5  -0.05122    -0.14859     0.22046     0.13522     0.09081    -0.14668
 PY  C   5  -0.10639    -0.14722    -0.21343    -0.10664     0.17938     0.25145
 PZ  C   5   0.00232    -0.00401    -0.00379     0.00353     0.01814     0.02756
  
  S  C   6   0.15284    -0.00163     0.08819     0.07695    -0.06425    -0.02945
 PX  C   6  -0.18825    -0.05583     0.01031    -0.04577    -0.22344    -0.16677
 PY  C   6   0.03856     0.24982     0.01197    -0.01886    -0.07894    -0.09313
 PZ  C   6   0.01155     0.01258     0.00037     0.00496    -0.00695     0.01766
  
  S  C   7  -0.10598     0.06401     0.03630     0.01496    -0.09684     0.01516
 PX  C   7   0.14342     0.07478     0.15734     0.04890     0.13060     0.20475
 PY  C   7   0.11133    -0.00258    -0.27340     0.09201     0.01712    -0.18936
 PZ  C   7   0.00293    -0.00409    -0.02049     0.00896     0.00468    -0.01057
  
  S  C   8   0.08208     0.02974    -0.04693    -0.04147    -0.08177    -0.00692
 PX  C   8  -0.16628     0.08859     0.10884    -0.11407     0.13271     0.01489
 PY  C   8  -0.08192    -0.03695    -0.25785     0.00147     0.04284    -0.24785
 PZ  C   8  -0.00020     0.00801     0.00466     0.01346     0.01491     0.01713
  
  S  C   9  -0.14728    -0.09679     0.17350    -0.08956     0.07722     0.06608
 PX  C   9   0.03982    -0.13167     0.00391     0.08124    -0.05410     0.01420
 PY  C   9  -0.04226     0.23522     0.02321    -0.04595     0.13438     0.00495
 PZ  C   9   0.00280     0.01398    -0.00939     0.02778     0.00743     0.00513
  
  S  C  10   0.12394    -0.14902    -0.13314     0.12878     0.05558    -0.06937
 PX  C  10   0.07377     0.11449    -0.06125    -0.02166     0.12585    -0.02155
 PY  C  10  -0.09301    -0.21278     0.11437    -0.04133    -0.08450     0.04838
 PZ  C  10   0.00135    -0.00267    -0.01016     0.01680     0.00097     0.00104
  
  S  C  11  -0.06959     0.03548    -0.00952    -0.06789    -0.05542    -0.03543
 PX  C  11  -0.18515    -0.03528     0.13466    -0.07580    -0.18054     0.04180
 PY  C  11  -0.09403     0.04262    -0.10091     0.25562    -0.13509    -0.05489
 PZ  C  11  -0.00697    -0.00227    -0.00211     0.01662    -0.01407     0.00793
  
  S  H  12  -0.04281    -0.02616     0.13754    -0.26629    -0.00947     0.04614
  
  S  C  13   0.11506     0.02641    -0.00850     0.03941    -0.08152     0.03791
 PX  C  13   0.13377    -0.06802     0.03722    -0.20073    -0.18626     0.06650
 PY  C  13   0.10527    -0.05905    -0.15834     0.19354    -0.07844    -0.06874
 PZ  C  13   0.00934     0.00255    -0.02664     0.05639    -0.00728    -0.00786
  
  S  H  14  -0.06630     0.07269     0.29590    -0.04383    -0.00742     0.23920
  
  S  H  15  -0.18304     0.04017    -0.02470    -0.07182     0.17015    -0.12601
  
  S  H  16   0.14723     0.04330     0.28035     0.17101     0.02278    -0.24231
  
  S  H  17  -0.13674    -0.05641    -0.27205    -0.16357     0.09398     0.22572
  
  S  H  18   0.22634     0.04328     0.03406     0.07751     0.16337     0.13384
  
  S  H  19   0.04911    -0.05179    -0.27355     0.03065    -0.07235    -0.19268
  
  S  H  20   0.06814     0.01172    -0.14893     0.26397    -0.01645    -0.06817
  
  S  C  21   0.17064    -0.04766    -0.02342    -0.04679     0.00792     0.00965
 PX  C  21  -0.01295     0.18511    -0.00985    -0.22802    -0.12899    -0.13622
 PY  C  21  -0.08350     0.13714    -0.03955     0.15606    -0.15331     0.16903
 PZ  C  21  -0.01442     0.00648    -0.00439     0.03512    -0.03377     0.03196
  
  S  C  22  -0.16208     0.03257     0.01212     0.10521    -0.06039     0.05866
 PX  C  22  -0.17457     0.08048     0.01984     0.05779     0.25641    -0.08566
 PY  C  22  -0.02022    -0.23846     0.05157     0.03391     0.04807    -0.01609
 PZ  C  22   0.00213    -0.00789    -0.00156     0.01273    -0.03221     0.01728
  
  S  C  23   0.15939    -0.04039    -0.00809    -0.11284    -0.06301    -0.04394
 PX  C  23   0.06606    -0.19704    -0.00531     0.04831     0.14861     0.07066
 PY  C  23   0.14913     0.13432    -0.05578    -0.07857     0.18130    -0.03939
 PZ  C  23   0.00064     0.00439    -0.00311     0.00893    -0.02164     0.00642
  
  S  C  24  -0.16426     0.02148     0.02931     0.06048     0.01307     0.00035
 PX  C  24   0.11108     0.17407    -0.01395    -0.13219    -0.17538    -0.08568
 PY  C  24  -0.02435     0.16243    -0.05161     0.24547    -0.05514     0.21436
 PZ  C  24   0.00410     0.00883    -0.00630     0.01465    -0.02445     0.00394
  
  S  H  25   0.13553    -0.04547     0.01813    -0.24901     0.06517    -0.18825
  
  S  H  26  -0.22103     0.07233     0.02494     0.10417     0.19720    -0.04518
  
  S  H  27   0.20884    -0.01789    -0.04517    -0.09122     0.17166    -0.01945
  
  S  H  28  -0.14023     0.05821    -0.02155     0.27595     0.03697     0.20173
  
  S  C  29  -0.06391     0.06785    -0.04972     0.21079     0.06152     0.03792
 PX  C  29   0.12637    -0.24160     0.02590     0.09205     0.11314     0.11389
 PY  C  29   0.12044     0.13377    -0.02349    -0.08654     0.23833     0.00197
 PZ  C  29  -0.00250    -0.00407    -0.00537     0.02871    -0.01522     0.01566
  
  S  C  30   0.04612     0.00507     0.02933    -0.20611     0.08284    -0.06724
 PX  C  30  -0.16057     0.04069    -0.01054     0.06934     0.25841    -0.11418
 PY  C  30  -0.06637    -0.28054     0.06332    -0.05020    -0.02395    -0.05820
 PZ  C  30  -0.00519    -0.00844    -0.00846     0.02966    -0.01171    -0.00268




    ROOT NO.   25          26          27          28          29          30

           -14.90828   -14.83703   -14.69910   -14.47836   -13.51075   -13.45466
  
  
  S  C   1   0.00103     0.02505    -0.03040     0.01024    -0.06694    -0.01871
 PX  C   1  -0.14726    -0.16127     0.01367    -0.09204    -0.11206     0.03720
 PY  C   1  -0.09661     0.11876     0.21788     0.12435    -0.09452    -0.06071
 PZ  C   1  -0.06922     0.06249     0.03319    -0.10689    -0.00360    -0.25073
  
  S  C   2  -0.04899     0.01009     0.09135     0.01836     0.03233    -0.00440
 PX  C   2   0.12224     0.14925     0.04075     0.11824     0.14926     0.00782
 PY  C   2  -0.06434    -0.00297    -0.04088     0.03229     0.05277     0.07160
 PZ  C   2  -0.04830     0.09889     0.01267    -0.12414     0.02510    -0.25497
  
  S  C   3   0.05734    -0.03449    -0.03884    -0.04854     0.00451    -0.00181
 PX  C   3   0.05266     0.03053     0.05432    -0.04148    -0.26427    -0.05534
 PY  C   3   0.01876    -0.11850    -0.06654    -0.09369     0.00015    -0.03422
 PZ  C   3  -0.06644     0.16043    -0.00812    -0.20643     0.02246    -0.28579
  
  S  C   4  -0.04002    -0.04281    -0.02414    -0.00607     0.00229     0.01064
 PX  C   4  -0.05262    -0.05724    -0.09803     0.01021    -0.17828    -0.00663
 PY  C   4  -0.08667     0.08466     0.07678     0.08285    -0.24356     0.00149
 PZ  C   4  -0.07828     0.16365    -0.01804    -0.20050     0.01974    -0.29001
  
  S  C   5   0.04799     0.07409    -0.02529     0.03798     0.01495    -0.02013
 PX  C   5   0.00566     0.01857     0.11183    -0.01171     0.17012     0.01694
 PY  C   5  -0.11682     0.06827     0.13188     0.11247     0.11996    -0.02487
 PZ  C   5  -0.05728     0.09491     0.00311    -0.12731     0.02952    -0.25670
  
  S  C   6  -0.01649    -0.01253     0.04451    -0.00520    -0.05860    -0.00029
 PX  C   6   0.12093     0.15617    -0.03803     0.08713    -0.19001    -0.05360
 PY  C   6   0.08549    -0.13711    -0.20667    -0.12648    -0.07566     0.07148
 PZ  C   6  -0.04520     0.06116    -0.00035    -0.11156     0.00855    -0.24133
  
  S  C   7  -0.05358    -0.04355     0.00543    -0.03459     0.01363    -0.01179
 PX  C   7  -0.10415    -0.02342    -0.02034     0.03429     0.26470     0.03386
 PY  C   7   0.03212    -0.01190     0.31704    -0.02784     0.12216    -0.02565
 PZ  C   7  -0.05093     0.16438    -0.00549    -0.20295    -0.00594    -0.14439
  
  S  C   8   0.04471     0.01715    -0.06338    -0.01210     0.00226    -0.00921
 PX  C   8   0.06219     0.19785    -0.09161     0.16483     0.20917    -0.04220
 PY  C   8   0.12737    -0.13581     0.01950    -0.17546     0.21923     0.02084
 PZ  C   8  -0.07675     0.17822    -0.03113    -0.18032     0.00661    -0.14775
  
  S  C   9   0.02213     0.00436     0.01441    -0.02841     0.00705     0.01249
 PX  C   9  -0.06168    -0.21756     0.11145    -0.19168    -0.19959     0.05095
 PY  C   9   0.00805    -0.11291     0.08085    -0.09672    -0.06172    -0.06813
 PZ  C   9  -0.09668     0.23435    -0.04727    -0.23379    -0.00619     0.00456
  
  S  C  10  -0.01528    -0.01566    -0.00351     0.02087     0.01437     0.01579
 PX  C  10   0.05104     0.02336    -0.27510     0.03953    -0.19148    -0.06219
 PY  C  10   0.00921     0.00165    -0.16473     0.00447    -0.15802     0.05721
 PZ  C  10  -0.07438     0.22449    -0.03965    -0.25455    -0.01185     0.00968
  
  S  C  11   0.04474     0.05611    -0.02555     0.03074    -0.03827    -0.01331
 PX  C  11  -0.03006    -0.02184     0.25021    -0.02806     0.17578     0.04332
 PY  C  11  -0.19909    -0.03174    -0.25813     0.10058     0.19110    -0.04031
 PZ  C  11  -0.05342     0.17234    -0.01590    -0.20436     0.01264     0.15816
  
  S  H  12   0.15189     0.03543     0.28944    -0.08098    -0.09146     0.04708
  
  S  C  13  -0.03568    -0.02687     0.06944     0.02948    -0.02441    -0.00941
 PX  C  13   0.16610     0.01516     0.00818    -0.06231     0.22040     0.00994
 PY  C  13  -0.08319     0.19595    -0.13983     0.27162     0.04283     0.01523
 PZ  C  13  -0.09667     0.20210    -0.05402    -0.14452    -0.00804     0.15223
  
  S  H  14  -0.08989    -0.02602    -0.23439     0.03040     0.03594     0.03787
  
  S  H  15   0.15364    -0.00482    -0.19149    -0.02948     0.10702     0.05345
  
  S  H  16   0.07620     0.07004     0.08978     0.03995     0.04352    -0.05205
  
  S  H  17  -0.06657     0.07930     0.04551     0.10762     0.03450    -0.03936
  
  S  H  18  -0.11898    -0.14781     0.05863    -0.08442     0.15786     0.04853
  
  S  H  19   0.08775    -0.18538     0.03034    -0.19586     0.07868     0.03991
  
  S  H  20  -0.16555     0.15007    -0.08477     0.21469    -0.08662     0.02558
  
  S  C  21   0.06705     0.01165    -0.08372    -0.02688    -0.02024     0.01053
 PX  C  21  -0.08088     0.10270    -0.03949     0.09624     0.13583    -0.03089
 PY  C  21   0.28992     0.14891     0.08360     0.06714     0.01161     0.01535
 PZ  C  21   0.01064     0.11111    -0.00591    -0.11464     0.03067     0.24309
  
  S  C  22   0.02766    -0.01632     0.03726    -0.01012     0.04361    -0.00584
 PX  C  22  -0.23712    -0.02994     0.17907     0.00206    -0.14910     0.08790
 PY  C  22  -0.12449    -0.20842    -0.11112    -0.11047     0.03157    -0.07252
 PZ  C  22   0.00059     0.07322    -0.02307    -0.09200     0.04248     0.21422
  
  S  C  23  -0.02786     0.01471    -0.04514     0.01828     0.05362    -0.00164
 PX  C  23   0.24792     0.00509    -0.18394    -0.06606    -0.05777    -0.05078
 PY  C  23   0.09420     0.19606     0.08184     0.09053    -0.14683     0.08343
 PZ  C  23  -0.02195     0.07683    -0.01279    -0.08454     0.03360     0.21976
  
  S  C  24  -0.06932    -0.06817     0.01035    -0.04336    -0.01472     0.00562
 PX  C  24  -0.22093     0.02732     0.16684     0.08977     0.08755     0.03784
 PY  C  24   0.23836     0.01001     0.08604    -0.03726     0.07662    -0.05294
 PZ  C  24  -0.04366     0.10447    -0.01496    -0.10765     0.03042     0.24308
  
  S  H  25  -0.22668    -0.07818    -0.11447    -0.00856     0.03501    -0.05614
  
  S  H  26  -0.20060    -0.04634     0.17964    -0.00364    -0.12567     0.06788
  
  S  H  27   0.17536     0.15629    -0.05063     0.04896    -0.12430     0.03489
  
  S  H  28   0.24709    -0.03757    -0.00228    -0.08207     0.00936    -0.06551
  
  S  C  29  -0.02940     0.01661     0.02435     0.04781     0.02408    -0.00163
 PX  C  29   0.12100    -0.10195     0.01039    -0.11312    -0.15709     0.02788
 PY  C  29   0.10793     0.08406     0.14062    -0.00285    -0.18463     0.00396
 PZ  C  29  -0.04472     0.17609    -0.02411    -0.20339     0.01722     0.29463
  
  S  C  30   0.02458     0.04506     0.03536    -0.00046     0.01434     0.00702
 PX  C  30  -0.14108     0.01927    -0.02308     0.05523    -0.21552    -0.00259
 PY  C  30  -0.06902    -0.10235    -0.16782    -0.04144    -0.02301     0.00594
 PZ  C  30  -0.07925     0.17856    -0.04623    -0.18253     0.01097     0.29489




    ROOT NO.   31          32          33          34          35          36

           -13.06359   -12.91067   -12.22131   -11.81710   -11.66349   -11.36171
  
  
  S  C   1   0.01831    -0.00128     0.00768     0.01219    -0.00467     0.01778
 PX  C   1  -0.15060    -0.18314    -0.10651    -0.00745     0.03897     0.15837
 PY  C   1   0.21004    -0.19925     0.14628    -0.07930    -0.01080     0.08405
 PZ  C   1  -0.07266    -0.02440     0.10137     0.26465    -0.13911     0.02246
  
  S  C   2   0.00397    -0.02279    -0.03138     0.01268     0.02098    -0.03874
 PX  C   2   0.14028     0.18740     0.05551    -0.01442    -0.00807    -0.19360
 PY  C   2  -0.13177     0.16296    -0.19722     0.06856     0.05748    -0.15024
 PZ  C   2  -0.06269     0.04126     0.08146     0.20145    -0.09338    -0.03210
  
  S  C   3   0.00793     0.03975     0.02224     0.00131    -0.00822     0.01443
 PX  C   3  -0.02716    -0.16088    -0.13671     0.08702     0.06824     0.20506
 PY  C   3   0.08725    -0.14968     0.27762    -0.12847    -0.11005     0.16109
 PZ  C   3  -0.06188     0.06750     0.04138     0.04617    -0.00134    -0.03467
  
  S  C   4  -0.02040    -0.04296     0.00031    -0.00142     0.00402    -0.00548
 PX  C   4   0.19178     0.10191     0.19904    -0.07253    -0.06628    -0.18839
 PY  C   4  -0.01564     0.05647    -0.24980     0.13088     0.11583    -0.16349
 PZ  C   4  -0.06940     0.06322     0.03303     0.04378    -0.02548    -0.03088
  
  S  C   5   0.01402     0.02798    -0.02883     0.03261     0.01352     0.01535
 PX  C   5  -0.19229    -0.14437    -0.18074     0.05496     0.05930     0.18594
 PY  C   5   0.10064    -0.17090     0.11591    -0.06479    -0.01610     0.11200
 PZ  C   5  -0.07841     0.02639     0.07456     0.19311    -0.11027    -0.00517
  
  S  C   6   0.02508    -0.02673     0.00793    -0.01447     0.00467    -0.01058
 PX  C   6   0.23252     0.13257     0.12371    -0.01956    -0.02844    -0.13277
 PY  C   6  -0.14472     0.19814    -0.13574     0.04503     0.02334    -0.12275
 PZ  C   6  -0.08533     0.02294     0.08648     0.26817    -0.14581    -0.00610
  
  S  C   7  -0.02493    -0.07945    -0.02099     0.01128     0.04095    -0.01138
 PX  C   7   0.02497     0.10819     0.10813    -0.07669    -0.03419    -0.22027
 PY  C   7   0.09218    -0.04828    -0.11717     0.07725     0.13024    -0.17800
 PZ  C   7  -0.01440     0.03936    -0.03202    -0.11961     0.10266    -0.00007
  
  S  C   8   0.03637     0.07390    -0.02365     0.02634     0.04525     0.00629
 PX  C   8   0.04802    -0.05559    -0.09002     0.08095     0.10110     0.21842
 PY  C   8  -0.09137    -0.03885     0.15332    -0.10643    -0.10444     0.14891
 PZ  C   8  -0.02104     0.04002    -0.03968    -0.13287     0.05595    -0.00951
  
  S  C   9  -0.04414    -0.04341    -0.00348    -0.00632     0.00806     0.00286
 PX  C   9  -0.07475     0.00347     0.11415    -0.10456    -0.12268    -0.21510
 PY  C   9   0.20624    -0.16027    -0.03740     0.12261     0.23982    -0.15535
 PZ  C   9   0.02950     0.01663    -0.09178    -0.29420     0.11430     0.00848
  
  S  C  10  -0.01787     0.06581     0.00557     0.01201    -0.00957    -0.01092
 PX  C  10   0.15126    -0.02737    -0.01335     0.11408     0.14179     0.22739
 PY  C  10  -0.18997     0.06804     0.09391    -0.10778    -0.23256     0.17312
 PZ  C  10   0.02826     0.02065    -0.07143    -0.28838     0.15885     0.02592
  
  S  C  11  -0.01894    -0.06360    -0.00278     0.01825     0.04428     0.03063
 PX  C  11  -0.15603    -0.02949     0.02230    -0.09152    -0.11146    -0.21581
 PY  C  11   0.00874    -0.11927     0.08351     0.04083     0.17786    -0.11172
 PZ  C  11   0.05006    -0.01847    -0.02420    -0.13019     0.08655     0.00270
  
  S  H  12  -0.08750     0.05409    -0.06294    -0.08256    -0.21281     0.00484
  
  S  C  13   0.02869     0.07196     0.01264     0.03254     0.05220    -0.01661
 PX  C  13   0.05049     0.16203     0.04119     0.02854     0.11843     0.20510
 PY  C  13  -0.15202     0.11628    -0.03805    -0.04135    -0.18931     0.15503
 PZ  C  13   0.03000    -0.00909    -0.06105    -0.14744    -0.02863     0.01280
  
  S  H  14  -0.06962     0.05120     0.15462    -0.10523    -0.13229     0.03531
  
  S  H  15  -0.07297     0.26529    -0.07229     0.03977     0.00240    -0.16023
  
  S  H  16   0.18091    -0.06522     0.19502    -0.07515    -0.05088     0.02588
  
  S  H  17   0.18178    -0.06177     0.18759    -0.07563    -0.04620     0.01740
  
  S  H  18  -0.21663    -0.14550    -0.11676     0.01430     0.02756     0.13790
  
  S  H  19  -0.07740     0.02878     0.17743    -0.12518    -0.14295     0.02615
  
  S  H  20  -0.12391     0.04204    -0.05854    -0.07127    -0.22441     0.01731
  
  S  C  21   0.02314    -0.01712     0.02393     0.03436     0.03833     0.03594
 PX  C  21  -0.03768    -0.21447    -0.11463    -0.05375    -0.14794    -0.16981
 PY  C  21  -0.22240    -0.04909     0.14452    -0.02668     0.12285    -0.05697
 PZ  C  21   0.04346    -0.05370     0.08089     0.23347    -0.04509    -0.01437
  
  S  C  22   0.00575     0.01109    -0.00428    -0.00557     0.00038    -0.01173
 PX  C  22  -0.02684     0.20806     0.09975     0.05494     0.07218     0.10239
 PY  C  22   0.26561     0.05022    -0.17761    -0.00410    -0.11862     0.06724
 PZ  C  22   0.06963    -0.06300     0.05956     0.30203    -0.11385    -0.01797
  
  S  C  23   0.01358    -0.00066    -0.01298     0.00727    -0.00945     0.01558
 PX  C  23   0.01455    -0.25795    -0.07192    -0.02469    -0.07958    -0.12837
 PY  C  23  -0.25728    -0.04227     0.18376     0.01213     0.12123    -0.04082
 PZ  C  23   0.06891    -0.04509     0.05410     0.30072    -0.13692    -0.00432
  
  S  C  24   0.03029    -0.01030     0.01971     0.01529     0.02917    -0.03405
 PX  C  24  -0.00274     0.26664     0.03577     0.01468     0.04867     0.15165
 PY  C  24   0.15522     0.09713    -0.17723    -0.02723    -0.14589     0.09856
 PZ  C  24   0.07752    -0.03393     0.03300     0.22759    -0.12711     0.00778
  
  S  H  25   0.17074    -0.06484    -0.19054    -0.02746    -0.17618    -0.01920
  
  S  H  26  -0.01871     0.21473     0.08931     0.03652     0.07533     0.10574
  
  S  H  27  -0.19830    -0.16909     0.10876    -0.00795     0.05799    -0.10023
  
  S  H  28   0.14306    -0.04556    -0.16874    -0.03392    -0.14980    -0.00281
  
  S  C  29  -0.00702     0.02933     0.00072     0.00157     0.00446    -0.02484
 PX  C  29   0.02757     0.19719     0.12998     0.05992     0.16979     0.18507
 PY  C  29   0.05702     0.06910    -0.17847    -0.03918    -0.25483     0.10679
 PZ  C  29   0.08127    -0.04800     0.02620     0.06737     0.00112     0.00284
  
  S  C  30  -0.02206    -0.02981    -0.01438    -0.00195    -0.01399     0.01106
 PX  C  30  -0.08533    -0.19412    -0.05261    -0.04965    -0.15694    -0.19243
 PY  C  30  -0.10132    -0.10801     0.21318     0.04382     0.25645    -0.08617
 PZ  C  30   0.07733    -0.05755     0.00794     0.06765    -0.06629    -0.00446




    ROOT NO.   37          38          39          40          41          42

           -10.70969    -9.85786    -9.75838    -8.32591    -8.02874    -6.75721
  
  
  S  C   1  -0.00356    -0.00717     0.00300    -0.00453     0.00346     0.00222
 PX  C   1   0.01114     0.04894    -0.01128     0.02558    -0.02974    -0.01780
 PY  C   1   0.01655     0.03779    -0.01717     0.02742    -0.01898    -0.01971
 PZ  C   1  -0.13667    -0.33189     0.15778    -0.26920     0.19809     0.19589
  
  S  C   2  -0.00565    -0.00183     0.00865    -0.00783    -0.00211     0.00690
 PX  C   2   0.01154    -0.01848    -0.01652     0.01042     0.02063    -0.00721
 PY  C   2   0.00183    -0.01088    -0.00669     0.00562     0.01110    -0.00350
 PZ  C   2  -0.24898    -0.12176     0.31913    -0.32340    -0.08135     0.23255
  
  S  C   3  -0.00249     0.00289     0.00708    -0.00431    -0.00903    -0.00008
 PX  C   3   0.00734     0.00855     0.00232    -0.00196    -0.01711     0.00063
 PY  C   3  -0.00082     0.01604     0.00040    -0.00133    -0.00476     0.00253
 PZ  C   3  -0.23900     0.26243     0.23847     0.04700    -0.33865    -0.15123
  
  S  C   4  -0.01015    -0.00393     0.00492     0.00035     0.00722    -0.00464
 PX  C   4  -0.00615    -0.00544    -0.00180     0.00324     0.01109    -0.00508
 PY  C   4  -0.00143    -0.01141     0.00032     0.00364     0.00132    -0.00552
 PZ  C   4   0.26054     0.25607    -0.21472     0.10732    -0.32838     0.14297
  
  S  C   5   0.00510    -0.00999    -0.00744     0.00608     0.00291    -0.00445
 PX  C   5  -0.00288     0.00695     0.00835    -0.00702    -0.00864     0.00649
 PY  C   5  -0.00947     0.01330     0.01319    -0.00957    -0.00580     0.00690
 PZ  C   5   0.22957    -0.10603    -0.33653     0.32433     0.07039    -0.23466
  
  S  C   6   0.00067     0.01568     0.00344    -0.00240    -0.01292     0.00565
 PX  C   6   0.00188    -0.00474    -0.00135    -0.00147     0.00084     0.00197
 PY  C   6  -0.00751     0.00289     0.01150    -0.01324    -0.00847     0.01356
 PZ  C   6   0.09139    -0.32950    -0.19476     0.15525     0.30827    -0.19909
  
  S  C   7   0.00195     0.00136     0.00403     0.00179    -0.00003    -0.00382
 PX  C   7  -0.02210     0.00316     0.01063     0.00987     0.01223    -0.01583
 PY  C   7   0.03072    -0.02124    -0.00334    -0.00746     0.00412     0.00695
 PZ  C   7  -0.33551     0.23245     0.18542     0.22606     0.03358    -0.36890
  
  S  C   8   0.02172     0.00016    -0.00550    -0.00751    -0.00547     0.01248
 PX  C   8  -0.00719    -0.01316     0.00898     0.00303    -0.00491    -0.00825
 PY  C   8   0.01000     0.01219    -0.00126    -0.00862    -0.00096     0.00892
 PZ  C   8   0.36100     0.21227    -0.15156    -0.21139    -0.07502     0.37505
  
  S  C   9   0.00572    -0.00168     0.01020    -0.00408     0.00558    -0.01047
 PX  C   9   0.00424     0.01115    -0.00282    -0.00476     0.01002     0.00196
 PY  C   9   0.02745    -0.02481     0.01444     0.00196    -0.00845    -0.01194
 PZ  C   9   0.26570    -0.00314     0.04571    -0.30206     0.30805     0.00240
  
  S  C  10   0.00693     0.00297    -0.00701    -0.00433    -0.01051     0.00555
 PX  C  10   0.01273    -0.00795     0.00349    -0.00569    -0.01382    -0.00238
 PY  C  10  -0.01978     0.02449    -0.00784    -0.00227    -0.01209     0.00718
 PZ  C  10  -0.25175     0.02073    -0.02950     0.14527     0.40691     0.01016
  
  S  C  11  -0.00311    -0.00923    -0.00332     0.00752    -0.00032     0.01095
 PX  C  11   0.00634     0.01016     0.00848    -0.00468     0.00016    -0.00951
 PY  C  11   0.00543    -0.00790     0.00625     0.00390     0.00187    -0.00118
 PZ  C  11  -0.31822    -0.19665    -0.26206     0.20127     0.03966     0.36093
  
  S  H  12  -0.00429     0.00982    -0.00304    -0.00595    -0.00280    -0.00331
  
  S  C  13  -0.02060     0.00976    -0.01594     0.02035     0.00172     0.02841
 PX  C  13   0.03966    -0.02596     0.02473    -0.01290    -0.00565    -0.01928
 PY  C  13  -0.06968     0.04063    -0.04113     0.02625     0.00036     0.04270
 PZ  C  13   0.29391    -0.22484     0.23328    -0.21392    -0.03378    -0.37066
  
  S  H  14  -0.02146     0.01077     0.00073     0.00126     0.00221     0.00228
  
  S  H  15  -0.00314    -0.02016    -0.00008    -0.00293     0.01073     0.00080
  
  S  H  16   0.00771     0.00421    -0.00819     0.00796     0.00256    -0.00658
  
  S  H  17  -0.00283     0.00464     0.00185    -0.00043     0.00093    -0.00020
  
  S  H  18  -0.00011     0.00756    -0.00038     0.00382    -0.00070    -0.00448
  
  S  H  19  -0.00213     0.00910    -0.00063     0.00013     0.00482    -0.00372
  
  S  H  20  -0.03648     0.01661    -0.01550    -0.00335    -0.00257    -0.00889
  
  S  C  21  -0.00559     0.00576    -0.02210    -0.02859    -0.00825    -0.01954
 PX  C  21  -0.02837     0.00931    -0.01836    -0.00331    -0.00255    -0.00189
 PY  C  21   0.03759    -0.01850     0.04921     0.03823     0.01110     0.02163
 PZ  C  21  -0.16250     0.15458    -0.33013    -0.35399    -0.07625    -0.23065
  
  S  C  22   0.00311     0.00021     0.00450     0.00204     0.00313     0.00029
 PX  C  22   0.00165     0.02055    -0.01000    -0.01718     0.01001    -0.00918
 PY  C  22  -0.01822    -0.00679    -0.01603    -0.00580    -0.01267    -0.00339
 PZ  C  22  -0.07081     0.36566    -0.16692    -0.28020     0.20047    -0.17633
  
  S  C  23  -0.00146     0.00772     0.00073     0.00147     0.00609     0.00332
 PX  C  23  -0.00183     0.00403     0.00654     0.01022     0.00257     0.00711
 PY  C  23   0.01550     0.00093     0.01043     0.00273     0.00415     0.00071
 PZ  C  23   0.08948     0.32978     0.18987     0.18035     0.29572     0.20636
  
  S  C  24   0.01062     0.00048     0.01245     0.00833     0.00213     0.00330
 PX  C  24  -0.00777    -0.00471    -0.01815    -0.01876    -0.00486    -0.01149
 PY  C  24  -0.01579    -0.00310    -0.01202    -0.00578    -0.00578    -0.00302
 PZ  C  24   0.17739     0.08671     0.34514     0.35747     0.06345     0.22637
  
  S  H  25  -0.02747     0.00075    -0.01389     0.00811    -0.00529     0.01029
  
  S  H  26   0.00657     0.00179    -0.00008    -0.00266     0.00073     0.00003
  
  S  H  27   0.00959    -0.00193     0.00912     0.00590     0.00017     0.00217
  
  S  H  28  -0.01367    -0.00254    -0.00782    -0.00059    -0.00603    -0.00009
  
  S  C  29  -0.00127     0.00856     0.00806     0.00926     0.01035     0.00270
 PX  C  29   0.03605    -0.00539     0.02368     0.00159     0.01087     0.00038
 PY  C  29  -0.02599     0.01456    -0.01739    -0.00175    -0.00494     0.00413
 PZ  C  29  -0.20582    -0.25302    -0.27144     0.02234    -0.34294     0.12909
  
  S  C  30  -0.00007     0.00491    -0.00539    -0.01191     0.00354    -0.00689
 PX  C  30  -0.03688     0.02745    -0.02556     0.00312     0.00906     0.01385
 PY  C  30   0.02555     0.00026     0.01058    -0.00438     0.01895     0.00162
 PZ  C  30   0.18416    -0.28387     0.24185     0.11579    -0.31849    -0.15199




    ROOT NO.   43          44          45          46          47          48

            -0.96403     0.20015     0.33494     1.30987     1.38605     1.87356
  
  
  S  C   1   0.00850    -0.00591    -0.01415    -0.01779    -0.00733    -0.01932
 PX  C   1  -0.01870    -0.01098     0.02553     0.00774     0.02771     0.00559
 PY  C   1  -0.01479    -0.01222     0.02555     0.01028     0.03251     0.01074
 PZ  C   1   0.20197     0.10524    -0.31591    -0.14149    -0.34149    -0.12874
  
  S  C   2  -0.01142     0.01651     0.01646     0.02684    -0.00024     0.02657
 PX  C   2   0.01599    -0.00255    -0.01753    -0.01192    -0.01258    -0.00713
 PY  C   2   0.00898     0.00151    -0.00984    -0.00479    -0.00980    -0.00168
 PZ  C   2  -0.23759     0.17407     0.29204     0.31587     0.13096     0.22956
  
  S  C   3  -0.00015    -0.01606    -0.00590    -0.02477     0.01100    -0.03320
 PX  C   3  -0.00878    -0.00346     0.00842     0.00313     0.00810    -0.00112
 PY  C   3  -0.00125     0.00335     0.00349     0.00785     0.00423     0.00535
 PZ  C   3  -0.15076    -0.31668     0.13505    -0.27061     0.26488    -0.23095
  
  S  C   4   0.00278    -0.00031     0.00195     0.00788    -0.01079     0.01662
 PX  C   4   0.00080     0.00129     0.00425     0.00740    -0.00389     0.00687
 PY  C   4  -0.00684    -0.00426     0.00535    -0.00986     0.00137    -0.01555
 PZ  C   4  -0.14613     0.27531    -0.20786    -0.22356    -0.27131    -0.25244
  
  S  C   5  -0.00598     0.00380     0.00637     0.00391     0.00268    -0.00648
 PX  C   5   0.00100    -0.00059    -0.00410    -0.00763     0.00436    -0.01000
 PY  C   5   0.00650    -0.00396    -0.00782    -0.00787     0.00182    -0.00417
 PZ  C   5  -0.24236     0.17115     0.29332     0.33986    -0.09250     0.20074
  
  S  C   6  -0.00858     0.01228     0.00239     0.00686    -0.01387     0.00525
 PX  C   6   0.00017     0.00070    -0.00075     0.00035    -0.00011     0.00231
 PY  C   6  -0.00407     0.01338    -0.00462     0.00171    -0.01776    -0.00167
 PZ  C   6   0.21056    -0.33604    -0.06479    -0.20037     0.32071    -0.06727
  
  S  C   7  -0.00302     0.00890     0.00182     0.00744    -0.01031     0.02730
 PX  C   7   0.01465    -0.00378    -0.01078    -0.00330    -0.00936     0.00337
 PY  C   7  -0.01272     0.00759     0.00556    -0.01148     0.00255    -0.01008
 PZ  C   7   0.35800    -0.09338    -0.19417     0.21925    -0.21945     0.32546
  
  S  C   8   0.01341    -0.00585    -0.01125     0.00872     0.01950     0.01908
 PX  C   8  -0.00781     0.00223     0.00315    -0.00207     0.00028    -0.00729
 PY  C   8   0.00901    -0.00288    -0.00331     0.00745     0.00366     0.01356
 PZ  C   8   0.37015    -0.12628    -0.17109     0.16822     0.19896     0.35023
  
  S  C   9  -0.01086     0.00061     0.00141    -0.01269    -0.02368     0.00519
 PX  C   9   0.00278    -0.00209    -0.00055     0.00004    -0.00197     0.01242
 PY  C   9  -0.01478    -0.00429    -0.01538    -0.01189    -0.01154     0.02256
 PZ  C   9   0.00007    -0.20023     0.38459     0.03141     0.02034    -0.27577
  
  S  C  10   0.01014    -0.01843    -0.00419     0.00636     0.01028    -0.00538
 PX  C  10  -0.00548    -0.00618     0.00189     0.00235    -0.00124     0.00261
 PY  C  10   0.00638    -0.00726     0.00199     0.00912     0.00685     0.00984
 PZ  C  10   0.01212     0.43601     0.02422     0.01047     0.01312    -0.26651
  
  S  C  11  -0.01417     0.00158     0.00142    -0.01131    -0.00709     0.01413
 PX  C  11   0.01586    -0.00643     0.00467     0.00469    -0.00928    -0.00192
 PY  C  11   0.00172    -0.00295     0.00371    -0.00207    -0.00983     0.00395
 PZ  C  11  -0.35004    -0.08971    -0.18003    -0.25099     0.17693     0.33214
  
  S  H  12   0.00718     0.00055     0.00252     0.00457     0.00348    -0.00539
  
  S  C  13   0.03238     0.01529     0.01526     0.03597     0.04938    -0.06335
 PX  C  13  -0.01795    -0.00333    -0.01190    -0.00785    -0.00398     0.01073
 PY  C  13   0.04101     0.01292     0.02133     0.02390     0.02414    -0.04040
 PZ  C  13  -0.36443    -0.10060    -0.18718    -0.20638    -0.22760     0.29953
  
  S  H  14   0.00104    -0.00120     0.00350    -0.00150     0.00836    -0.01711
  
  S  H  15  -0.00131     0.00137     0.00788     0.01131     0.00897     0.01440
  
  S  H  16   0.00704    -0.01029    -0.00853    -0.01493     0.00254    -0.01357
  
  S  H  17   0.00457    -0.00400    -0.00315    -0.00159     0.00243     0.00577
  
  S  H  18   0.00332    -0.00943     0.00197    -0.00256     0.01459    -0.00068
  
  S  H  19  -0.00671     0.00551     0.00954    -0.00368    -0.00991    -0.01869
  
  S  H  20  -0.01617    -0.00794    -0.00960    -0.02614    -0.03266     0.04929
  
  S  C  21   0.01734     0.01349     0.03732    -0.05156    -0.04194     0.04749
 PX  C  21   0.01240     0.00826     0.00998    -0.00697     0.00083    -0.00265
 PY  C  21  -0.02107    -0.01665    -0.02876     0.03186     0.01354    -0.01905
 PZ  C  21   0.23395     0.16607     0.31504    -0.30996    -0.17137     0.16455
  
  S  C  22  -0.00527     0.00155    -0.01476     0.01405     0.02774    -0.01437
 PX  C  22  -0.00793     0.00359    -0.01065     0.00214     0.00737     0.00206
 PY  C  22   0.01311     0.00752     0.01993    -0.02097    -0.01081     0.01476
 PZ  C  22  -0.18568     0.11037    -0.33022     0.14425     0.37600    -0.06265
  
  S  C  23  -0.00732    -0.01472    -0.00179     0.00645    -0.03009     0.00081
 PX  C  23   0.00307    -0.00107     0.00704    -0.00501    -0.00360     0.00229
 PY  C  23  -0.00314     0.00019    -0.00607     0.00507     0.00745    -0.00389
 PZ  C  23  -0.21144    -0.33676    -0.08025     0.20048    -0.32404    -0.10601
  
  S  C  24   0.00997     0.01552     0.01115    -0.01654     0.02594     0.00362
 PX  C  24  -0.00726    -0.00306    -0.01063     0.00736    -0.00052    -0.00136
 PY  C  24  -0.00379    -0.00465    -0.00240    -0.00099    -0.00954     0.00597
 PZ  C  24   0.23020     0.16987     0.31310    -0.33930     0.07579     0.19471
  
  S  H  25  -0.00634    -0.00996    -0.02024     0.03735     0.02632    -0.03532
  
  S  H  26   0.00014    -0.00330     0.00582    -0.00435    -0.01584     0.00585
  
  S  H  27   0.00396     0.00767     0.00023    -0.00080     0.01963    -0.00366
  
  S  H  28  -0.00182    -0.00725    -0.00501     0.01304    -0.01231    -0.00698
  
  S  C  29   0.00155     0.00793    -0.01518     0.02264     0.03516    -0.03446
 PX  C  29  -0.01956    -0.00177    -0.01836     0.00724     0.01220    -0.00137
 PY  C  29   0.00445     0.00959     0.00358    -0.00091     0.01385    -0.00603
 PZ  C  29   0.12496    -0.32637     0.11968     0.28143    -0.23208    -0.22642
  
  S  C  30  -0.01219    -0.01491     0.00019    -0.01695    -0.04164     0.03558
 PX  C  30   0.01010    -0.00311     0.01346     0.00540    -0.00090    -0.01267
 PY  C  30  -0.01577    -0.01417    -0.00429     0.00161    -0.00887    -0.00022
 PZ  C  30   0.15319     0.27236    -0.21053     0.23079     0.29241    -0.19912




    ROOT NO.   49          50          51          52          53          54

             2.38391     2.56079     2.85054     3.14525     3.36994     3.43308
  
  
  S  C   1  -0.06951    -0.11197    -0.16115     0.07146     0.20848    -0.03014
 PX  C   1   0.00434    -0.03652    -0.01567     0.01996     0.00705     0.06521
 PY  C   1   0.02083    -0.03444    -0.01452     0.04115     0.01067    -0.06165
 PZ  C   1  -0.28295     0.14664    -0.09656    -0.23738     0.05804    -0.00037
  
  S  C   2   0.09989     0.17704     0.21324    -0.08311    -0.20015    -0.08982
 PX  C   2   0.00694     0.03930     0.01265    -0.01150     0.03148    -0.05863
 PY  C   2   0.02168     0.05942     0.04071    -0.02228     0.00008    -0.03583
 PZ  C   2   0.19729    -0.12400     0.08254     0.24957    -0.06291    -0.00138
  
  S  C   3  -0.13867    -0.26939    -0.25796     0.09470     0.10686     0.14022
 PX  C   3  -0.00034     0.01253     0.06012    -0.03242    -0.06289     0.10783
 PY  C   3  -0.00923    -0.04404    -0.01754     0.01629    -0.06088    -0.07260
 PZ  C   3  -0.02688     0.04024    -0.08410    -0.27874     0.11591     0.01861
  
  S  C   4   0.11520     0.27461     0.23967    -0.10435     0.00228     0.15407
 PX  C   4   0.01672     0.03606    -0.00344     0.01041     0.04916    -0.06932
 PY  C   4  -0.02136    -0.03556    -0.07928     0.03584     0.10463     0.09126
 PZ  C   4   0.05346    -0.00171     0.11275     0.27786    -0.14145    -0.03196
  
  S  C   5  -0.08092    -0.17921    -0.19487     0.09409     0.07584    -0.22805
 PX  C   5  -0.02568    -0.06859    -0.04379     0.01762    -0.03923    -0.01480
 PY  C   5   0.00616     0.00269     0.01560    -0.00547    -0.03691     0.01453
 PZ  C   5  -0.21573     0.08589    -0.11078    -0.24568     0.09404     0.02659
  
  S  C   6   0.04022     0.12482     0.14620    -0.09664    -0.14373     0.19589
 PX  C   6   0.01715     0.02865     0.03333    -0.01059    -0.02121     0.00810
 PY  C   6  -0.00884     0.02128    -0.00191    -0.00974     0.05123     0.05119
 PZ  C   6   0.29533    -0.11944     0.12048     0.22809    -0.08076     0.00301
  
  S  C   7   0.12826     0.21640     0.10823    -0.01952     0.07657    -0.27649
 PX  C   7  -0.01533    -0.03203    -0.09101     0.04153     0.08889    -0.03698
 PY  C   7   0.03255     0.02919    -0.03192     0.01507     0.07541    -0.05674
 PZ  C   7  -0.14162     0.06511     0.03190     0.12393    -0.09574    -0.03400
  
  S  C   8  -0.09626    -0.23475    -0.08938     0.00482    -0.22925    -0.14905
 PX  C   8  -0.01696    -0.00854     0.06480    -0.04347    -0.11657     0.00908
 PY  C   8   0.01958     0.04363     0.05893    -0.03668    -0.03406     0.02327
 PZ  C   8   0.12297    -0.07861    -0.03161    -0.13123     0.12919     0.04005
  
  S  C   9   0.12157     0.22034    -0.03296     0.07488     0.38356     0.06325
 PX  C   9   0.01329    -0.01246    -0.06732     0.02925     0.00290    -0.06785
 PY  C   9  -0.00456    -0.02999    -0.02747     0.01518    -0.03839     0.16012
 PZ  C   9  -0.26915     0.18992    -0.03936    -0.01949    -0.11035    -0.04179
  
  S  C  10  -0.14364    -0.20991     0.03773    -0.05013    -0.27506     0.29928
 PX  C  10  -0.00479     0.01767     0.07292    -0.00480     0.06133     0.06026
 PY  C  10  -0.00979    -0.00595     0.04175    -0.02958    -0.09924    -0.09556
 PZ  C  10   0.28970    -0.17419     0.02453     0.03063     0.08269     0.06119
  
  S  C  11   0.12942     0.18322    -0.16021     0.04383     0.06683    -0.27621
 PX  C  11  -0.00731    -0.02634    -0.05875    -0.00017    -0.11473     0.05487
 PY  C  11   0.02892     0.02342    -0.06975     0.01046    -0.06224     0.00112
 PZ  C  11  -0.13070     0.04597    -0.03560    -0.17349    -0.03819    -0.01832
  
  S  H  12  -0.06498    -0.10114     0.09411    -0.03375    -0.06713     0.12538
  
  S  C  13  -0.13014    -0.16393     0.14107    -0.10820    -0.19175    -0.21331
 PX  C  13  -0.01580    -0.00800     0.08529    -0.00302     0.09404    -0.05405
 PY  C  13   0.00886     0.05375     0.00598    -0.01135     0.08869    -0.01340
 PZ  C  13   0.06495    -0.11143     0.09268     0.13133     0.01906     0.00259
  
  S  H  14  -0.06569    -0.12345    -0.06960     0.01120    -0.06437     0.14095
  
  S  H  15   0.05007     0.06444     0.09853    -0.03348    -0.12739     0.00252
  
  S  H  16  -0.05467    -0.10848    -0.13716     0.05928     0.13557     0.03231
  
  S  H  17   0.05100     0.10180     0.12547    -0.05889    -0.06857     0.12902
  
  S  H  18  -0.01839    -0.08068    -0.08506     0.06398     0.07994    -0.12962
  
  S  H  19   0.05053     0.13280     0.05616    -0.00226     0.13619     0.04569
  
  S  H  20   0.07670     0.08306    -0.08379     0.07284     0.10669     0.08819
  
  S  C  21   0.14622     0.08976    -0.25214    -0.04381    -0.23722    -0.18202
 PX  C  21  -0.02587    -0.05222     0.05117    -0.03840    -0.00146     0.03710
 PY  C  21  -0.01144     0.01409    -0.01316     0.01454    -0.03122     0.01367
 PZ  C  21   0.16203    -0.17672     0.04008    -0.23528     0.07037     0.01649
  
  S  C  22  -0.10322    -0.05363     0.19446     0.05686     0.23145     0.07534
 PX  C  22   0.01547     0.02369    -0.04109     0.00469    -0.02476     0.01174
 PY  C  22   0.01811     0.00644    -0.01415    -0.00734    -0.01350    -0.10247
 PZ  C  22  -0.24736     0.21170    -0.03050     0.22600    -0.05805     0.00011
  
  S  C  23   0.09760     0.05186    -0.17973    -0.03274    -0.14664     0.16305
 PX  C  23  -0.01159    -0.02613     0.02852    -0.02253    -0.02625    -0.08810
 PY  C  23  -0.01961    -0.00728     0.03443     0.01477     0.05130     0.04370
 PZ  C  23   0.26469    -0.19741     0.01470    -0.22501     0.04805    -0.02849
  
  S  C  24  -0.11965    -0.10682     0.23577    -0.02490     0.08910    -0.28395
 PX  C  24   0.01331     0.02433    -0.01504     0.02516     0.04275     0.02438
 PY  C  24   0.03259     0.03942    -0.05314     0.02299     0.00897     0.04121
 PZ  C  24  -0.21530     0.14522     0.01416     0.24616    -0.03157     0.04020
  
  S  H  25  -0.08990    -0.04440     0.15606     0.03713     0.15218     0.08684
  
  S  H  26   0.06314     0.03594    -0.12097    -0.03361    -0.14781    -0.06006
  
  S  H  27  -0.06053    -0.03112     0.10674     0.01927     0.08079    -0.10991
  
  S  H  28   0.06975     0.05901    -0.14618     0.00819    -0.07484     0.15686
  
  S  C  29  -0.16169    -0.17475     0.29814    -0.04796     0.15276     0.13942
 PX  C  29  -0.00463     0.02975     0.02060     0.03707     0.09713     0.06822
 PY  C  29  -0.01516    -0.01048     0.06176    -0.02897     0.03134    -0.16092
 PZ  C  29  -0.06090     0.06324     0.05718     0.30921    -0.00190     0.01845
  
  S  C  30   0.15277     0.17592    -0.28665     0.09466    -0.03196     0.24986
 PX  C  30   0.00414    -0.00886    -0.05499    -0.01822    -0.11646    -0.05056
 PY  C  30  -0.01828    -0.02556     0.02863     0.00207     0.01961     0.12709
 PZ  C  30   0.10730    -0.03132    -0.09221    -0.29653     0.00192    -0.01285




    ROOT NO.   55          56          57          58          59          60

             3.60419     3.69110     3.84311     3.89312     4.22166     4.29635
  
  
  S  C   1  -0.24984    -0.31798    -0.01400    -0.16280    -0.06410     0.04782
 PX  C   1   0.01492     0.08470    -0.04342    -0.09674    -0.12003    -0.03664
 PY  C   1  -0.04365    -0.06328     0.03033     0.06408     0.04654    -0.00883
 PZ  C   1   0.11805    -0.04217    -0.00983     0.02566    -0.00121    -0.00817
  
  S  C   2   0.12112     0.01960     0.10913     0.28816     0.28802     0.05718
 PX  C   2  -0.08013    -0.17121     0.02957     0.00880     0.02584     0.02742
 PY  C   2  -0.03617    -0.09507     0.00949    -0.02395    -0.07208    -0.01519
 PZ  C   2  -0.14952     0.05896     0.01059    -0.04091    -0.02192    -0.00129
  
  S  C   3   0.07093     0.30737    -0.10079    -0.11086    -0.00828     0.03374
 PX  C   3  -0.00189    -0.01613     0.01957    -0.03197     0.14914     0.12463
 PY  C   3   0.08446     0.09719     0.03959     0.16809     0.09671    -0.02374
 PZ  C   3   0.22092    -0.13409    -0.03324     0.02767     0.00787     0.00277
  
  S  C   4  -0.14829    -0.25222    -0.01192    -0.20950     0.00393     0.10292
 PX  C   4  -0.05056    -0.08005     0.03034     0.11054     0.14894     0.03195
 PY  C   4  -0.01333     0.12614    -0.06912    -0.07297     0.07041     0.07555
 PZ  C   4  -0.22521     0.11116     0.04994    -0.01209    -0.00704    -0.01719
  
  S  C   5  -0.02646    -0.05229     0.08033     0.30595     0.28074     0.02388
 PX  C   5   0.09472     0.16332    -0.01711     0.03136    -0.05907    -0.03591
 PY  C   5   0.05619     0.08967    -0.00243     0.03304     0.03115    -0.00271
 PZ  C   5   0.13638    -0.06204    -0.02865    -0.00353    -0.00770     0.00565
  
  S  C   6   0.21503     0.34277    -0.07532    -0.10372    -0.11051    -0.01948
 PX  C   6   0.01000     0.00371     0.00251    -0.00182    -0.02381    -0.01766
 PY  C   6  -0.06863    -0.08439    -0.03029    -0.13959    -0.10975     0.00638
 PZ  C   6  -0.09735     0.06688     0.01023    -0.01942    -0.00765    -0.00085
  
  S  C   7  -0.01970    -0.11373    -0.00952     0.13735    -0.26526    -0.26349
 PX  C   7   0.02615     0.13267    -0.05861    -0.01387    -0.06410    -0.02404
 PY  C   7   0.02279     0.06992    -0.04708    -0.00230     0.01149     0.04517
 PZ  C   7  -0.20953     0.12304     0.04652    -0.00785    -0.00059    -0.00210
  
  S  C   8   0.15980    -0.01984     0.11741     0.10873    -0.26941    -0.22798
 PX  C   8  -0.01662    -0.10304     0.03596    -0.07417    -0.01630     0.06981
 PY  C   8  -0.01345    -0.08888     0.01489    -0.04442    -0.05970    -0.01766
 PZ  C   8   0.19850    -0.11027    -0.06867    -0.00322     0.02671     0.05188
  
  S  C   9  -0.06540     0.19730    -0.15294     0.03399     0.14403    -0.07254
 PX  C   9   0.06071     0.02527     0.04324     0.07447    -0.10692    -0.14223
 PY  C   9   0.00337    -0.05522     0.07066    -0.02396     0.10478    -0.09253
 PZ  C   9  -0.28173     0.15719     0.10166     0.00086    -0.00555    -0.05914
  
  S  C  10  -0.03220    -0.18260     0.12896    -0.10501     0.14541     0.00847
 PX  C  10  -0.04471    -0.02173    -0.04664     0.05745     0.04153    -0.18498
 PY  C  10   0.01228    -0.08315     0.04839     0.03879    -0.13766    -0.05318
 PZ  C  10   0.28739    -0.17579    -0.07693    -0.00980     0.01054     0.02241
  
  S  C  11   0.07875     0.12919     0.06844    -0.04664    -0.14801     0.34032
 PX  C  11   0.01758    -0.05562     0.08356    -0.09644     0.02863     0.06373
 PY  C  11   0.02692    -0.02798     0.06333    -0.06446     0.03781    -0.04471
 PZ  C  11  -0.22085     0.12053     0.07780     0.01083    -0.00096    -0.02383
  
  S  H  12  -0.03854    -0.09918    -0.05115     0.01289     0.10468    -0.30424
  
  S  C  13  -0.03212    -0.03262    -0.11736    -0.01691    -0.14088     0.35052
 PX  C  13  -0.01157     0.04571    -0.13104    -0.01874     0.05078    -0.04003
 PY  C  13  -0.05239     0.07560    -0.06351    -0.00095     0.00599     0.04642
 PZ  C  13   0.19253    -0.11962    -0.10874     0.00328    -0.02358     0.11141
  
  S  H  14   0.03150     0.08890     0.01519    -0.07148     0.21845     0.24186
  
  S  H  15   0.14606     0.18758     0.00950     0.09876    -0.00646    -0.06277
  
  S  H  16  -0.08204    -0.01855    -0.07729    -0.19985    -0.26744    -0.07790
  
  S  H  17   0.02682     0.03073    -0.04837    -0.20641    -0.25172    -0.04743
  
  S  H  18  -0.13179    -0.21557     0.04833     0.06022     0.02560    -0.01404
  
  S  H  19  -0.10695     0.01849    -0.07861    -0.04554     0.22067     0.21861
  
  S  H  20   0.05411     0.01043     0.08531    -0.00969     0.10236    -0.31334
  
  S  C  21   0.02154    -0.02308    -0.12441    -0.26522     0.18591    -0.13330
 PX  C  21  -0.06171     0.00261    -0.16772     0.04876     0.04536    -0.06107
 PY  C  21  -0.01513    -0.01632    -0.11076     0.05996    -0.03033     0.03057
 PZ  C  21  -0.12532     0.07879     0.08344     0.05802    -0.04510     0.02951
  
  S  C  22   0.07653     0.03519     0.41188     0.00562    -0.07191     0.04284
 PX  C  22  -0.00345    -0.00794    -0.00614     0.00620     0.00388    -0.02039
 PY  C  22   0.04481     0.01489     0.07680    -0.15991     0.08143    -0.04435
 PZ  C  22   0.09173    -0.06159    -0.07456    -0.01751     0.01536    -0.00444
  
  S  C  23  -0.12928    -0.05204    -0.32766     0.25420    -0.07398     0.00687
 PX  C  23   0.00215     0.00616    -0.10477    -0.07717     0.07387    -0.06514
 PY  C  23   0.00802     0.00322     0.08851     0.03847    -0.03531     0.01031
 PZ  C  23  -0.08031     0.06305     0.08051    -0.02018     0.00450    -0.00899
  
  S  C  24   0.08001     0.05994    -0.02199    -0.29767     0.19171    -0.14886
 PX  C  24   0.03955     0.00643     0.18505    -0.04891    -0.00047     0.01498
 PY  C  24   0.02168    -0.00444     0.09451    -0.04482     0.04388    -0.04329
 PZ  C  24   0.11380    -0.08029    -0.06633     0.02671    -0.01723     0.03224
  
  S  H  25  -0.00322     0.01936     0.07778     0.19020    -0.16976     0.15891
  
  S  H  26  -0.04522    -0.02092    -0.26680    -0.00045     0.02929     0.00761
  
  S  H  27   0.07930     0.03203     0.19684    -0.15252     0.02771     0.03347
  
  S  H  28  -0.05161    -0.03942     0.01344     0.20427    -0.16489     0.15875
  
  S  C  29  -0.11333     0.01579    -0.23766     0.21433    -0.00274    -0.10599
 PX  C  29   0.01128     0.01748     0.12543     0.11089    -0.10596     0.09113
 PY  C  29  -0.00077     0.05343    -0.09605    -0.02821    -0.02994     0.10582
 PZ  C  29   0.22236    -0.12949    -0.10924    -0.01187     0.00898     0.01471
  
  S  C  30   0.04407    -0.05495     0.32131     0.03822    -0.01990    -0.04300
 PX  C  30  -0.00054    -0.02447     0.00495     0.01200    -0.09059     0.18002
 PY  C  30  -0.05105    -0.02046    -0.07590     0.16922    -0.06441     0.00284
 PZ  C  30  -0.21284     0.12692     0.11705     0.00121     0.00433    -0.04780




    ROOT NO.   61          62          63          64          65          66

             5.23987     5.51511     5.55144     5.67093     6.12415     6.43965
  
  
  S  C   1   0.11662    -0.08435    -0.30344     0.09397    -0.05772     0.02034
 PX  C   1  -0.11764     0.05919     0.08273    -0.14839     0.09783    -0.03227
 PY  C   1  -0.00527     0.04716     0.30544     0.01251     0.00850    -0.00697
 PZ  C   1  -0.01288     0.01382     0.06306    -0.00998     0.00852    -0.00325
  
  S  C   2   0.14665    -0.06110    -0.05358     0.17067    -0.10258     0.03467
 PX  C   2   0.09821    -0.06201    -0.19676     0.08685    -0.05549     0.02332
 PY  C   2  -0.05708     0.04611     0.07085    -0.14711     0.17061    -0.09282
 PZ  C   2  -0.00410     0.00007    -0.01705    -0.01110     0.00847    -0.00344
  
  S  C   3  -0.02257    -0.01422     0.01407     0.08306    -0.13780     0.08450
 PX  C   3   0.14573    -0.02680     0.04632     0.04661     0.10860    -0.10097
 PY  C   3   0.03942    -0.03293    -0.04990     0.11881    -0.15342     0.09912
 PZ  C   3  -0.00313     0.00189     0.00703    -0.00202     0.00247    -0.00073
  
  S  C   4   0.03679     0.01252     0.02767    -0.08278     0.15982    -0.10896
 PX  C   4  -0.11670     0.04099    -0.02878    -0.13638     0.07871    -0.03311
 PY  C   4  -0.09749     0.01283     0.04419     0.02006    -0.15568     0.12712
 PZ  C   4   0.00827     0.00036    -0.00193    -0.00374     0.00864    -0.00500
  
  S  C   5  -0.16355     0.05312    -0.07270    -0.19478     0.11789    -0.04614
 PX  C   5  -0.00426    -0.02330    -0.05027     0.07586    -0.13661     0.09770
 PY  C   5  -0.09464     0.01637    -0.19540    -0.16390     0.13887    -0.07717
 PZ  C   5   0.00175    -0.00137     0.00563     0.00782    -0.00744     0.00380
  
  S  C   6  -0.09037    -0.01096    -0.29799    -0.12049     0.05473    -0.01451
 PX  C   6   0.05389     0.01820     0.30208     0.10954    -0.06991     0.02567
 PY  C   6   0.11029    -0.05539    -0.07594     0.13278    -0.09002     0.03470
 PZ  C   6   0.00080    -0.00496    -0.03433    -0.00276     0.00075    -0.00034
  
  S  C   7  -0.20999     0.03247    -0.06951    -0.05400    -0.12516     0.11569
 PX  C   7  -0.04430    -0.01719    -0.04991     0.04969    -0.11435     0.08484
 PY  C   7   0.07972    -0.04176     0.02559     0.08323     0.11309    -0.20719
 PZ  C   7   0.01042    -0.00179    -0.00070     0.00220     0.00750    -0.01103
  
  S  C   8   0.22175    -0.04566    -0.04258     0.07470     0.11561    -0.11796
 PX  C   8  -0.03577     0.01539    -0.00424    -0.10259    -0.03404     0.15578
 PY  C   8   0.09587    -0.01919    -0.04290     0.00064     0.18127    -0.22159
 PZ  C   8  -0.03034     0.00256     0.00477    -0.00484    -0.01670     0.01359
  
  S  C   9   0.00388    -0.01165     0.01954     0.14384     0.02533    -0.19363
 PX  C   9   0.16758    -0.03315    -0.01635     0.05204     0.10091    -0.10161
 PY  C   9   0.07179     0.04724     0.01562    -0.10003     0.01506     0.16306
 PZ  C   9   0.02532     0.00326    -0.00208    -0.00828     0.00849     0.01016
  
  S  C  10  -0.02521     0.06460     0.02289    -0.13033    -0.03406     0.15926
 PX  C  10  -0.15613     0.01641    -0.01379     0.08868    -0.07781    -0.11172
[...]
  S   H   18   -0.0940    0.0344   -0.0205   -0.0413   -0.0079    0.3183    0.0017   -0.0284
  S   H   19   -0.1933    0.2602    0.1914    0.2113   -0.1067    0.0394   -0.0115    0.2086
  S   H   20    0.1337    0.2604    0.3083   -0.0947   -0.0515   -0.0079    0.0450   -0.1859
  S   C   21    0.1089    0.0432   -0.0108   -0.0038    0.0122    0.0009    0.0888    0.0000
  Px  C   21    0.1566    0.1213   -0.2466    0.1721   -0.1773   -0.0005   -0.0856    0.0753
  Py  C   21   -0.1423   -0.0918    0.0879   -0.0621    0.0546    0.0023    0.2779    0.0355
  Pz  C   21   -0.0347   -0.0192    0.0200   -0.0123    0.0109    0.0002    0.0197    0.0019
  S   C   22    0.0354    0.0091    0.0565   -0.0333    0.0338   -0.0005   -0.1019   -0.0437
  Px  C   22    0.0246    0.0077    0.0762   -0.0507    0.0463    0.0039    0.5040    0.1605
  Py  C   22    0.1040    0.0407   -0.0384    0.0228   -0.0242    0.0006   -0.0303   -0.0303
  Pz  C   22    0.0060    0.0030   -0.0055    0.0033   -0.0028   -0.0001   -0.0214   -0.0066
  S   C   23   -0.0972   -0.0349    0.0538   -0.0312    0.0288    0.0004    0.0802    0.0200
  Px  C   23   -0.1234   -0.0480   -0.0182    0.0127   -0.0235   -0.0018   -0.2061    0.0135
  Py  C   23   -0.0356   -0.0176    0.0701   -0.0437    0.0400   -0.0024   -0.4477   -0.1231
  Pz  C   23    0.0041    0.0017   -0.0011    0.0007   -0.0006    0.0000   -0.0003   -0.0015
  S   C   24   -0.1354   -0.0575   -0.0302    0.0097   -0.0031   -0.0001   -0.0679    0.0368
  Px  C   24    0.0883    0.0391   -0.0541    0.0373   -0.0456   -0.0012   -0.1660    0.0033
  Py  C   24   -0.1908   -0.1263   -0.2519    0.1809   -0.1956   -0.0017    0.2207   -0.1518
  Pz  C   24    0.0071    0.0007   -0.0045    0.0031   -0.0031   -0.0000   -0.0018   -0.0035
  S   H   25   -0.2071   -0.1245    0.1636   -0.1097    0.1044    0.0011    0.1532   -0.0083
  S   H   26   -0.0446   -0.0165   -0.0691    0.0426   -0.0378   -0.0026   -0.3141   -0.0984
  S   H   27    0.1378    0.0555   -0.0489    0.0267   -0.0167    0.0020    0.3159    0.0637
  S   H   28    0.2354    0.1284    0.1726   -0.1169    0.1186    0.0006   -0.1582    0.0791
  S   C   29    0.1800    0.1397   -0.1755    0.1331   -0.1607   -0.0011    0.0296    0.0132
  Px  C   29   -0.0827   -0.0323   -0.0580    0.0674   -0.0965    0.0003   -0.1265    0.0948
  Py  C   29    0.1347    0.1365    0.0822   -0.0820    0.1328   -0.0022   -0.0434    0.0958
  Pz  C   29    0.0114    0.0086   -0.0110    0.0066   -0.0073   -0.0000   -0.0045    0.0033
  S   C   30   -0.1403   -0.1052   -0.1954    0.1515   -0.1862   -0.0001   -0.0005   -0.0138
  Px  C   30   -0.0849   -0.1088    0.0387   -0.0253    0.0369    0.0002    0.0721   -0.2078
  Py  C   30    0.1694    0.1276   -0.0548    0.0683   -0.1163   -0.0035    0.0884   -0.0717
  Pz  C   30    0.0008    0.0054    0.0005    0.0035   -0.0090   -0.0003    0.0063   -0.0108


   Root No.      73        74        75        76        77        78        79        80

                73 ????   24 a      23 b      25 a      24 b      25 b      26 b      27 b   

                 9.379     9.578    10.182    10.671    11.047    11.575    11.875    12.122
  
  S   C    1   -0.0373    0.0730    0.0424    0.0737   -0.0353    0.0249    0.0169    0.0065
  Px  C    1   -0.1310    0.2331   -0.0462    0.1942    0.1467    0.0011   -0.1945   -0.1959
  Py  C    1   -0.0245    0.0731    0.1770    0.0762   -0.1942    0.0581    0.1701    0.1498
  Pz  C    1   -0.0134    0.0253    0.0090    0.0212   -0.0029    0.0052   -0.0031   -0.0052
  S   C    2    0.0724   -0.0986    0.0661   -0.0286   -0.0987    0.0537    0.0535    0.0282
  Px  C    2   -0.1243    0.2295    0.0082    0.2255    0.0543    0.0711   -0.1468   -0.1828
  Py  C    2    0.2079   -0.2190    0.1897    0.0559   -0.2090    0.1817    0.0254   -0.0534
  Pz  C    2   -0.0013    0.0063    0.0021    0.0109    0.0021    0.0043   -0.0083   -0.0098
  S   C    3    0.0118   -0.0400    0.0068   -0.0521   -0.0267   -0.0026    0.0222    0.0208
  Px  C    3    0.1730   -0.1653    0.2563    0.0648   -0.0443   -0.2328    0.0406    0.1310
  Py  C    3    0.0894   -0.0547    0.1252    0.1213   -0.2536    0.4094   -0.0436   -0.2133
  Pz  C    3   -0.0016    0.0036   -0.0008    0.0035   -0.0005    0.0046   -0.0010   -0.0031
  S   C    4    0.0147   -0.0416    0.0029   -0.0576    0.0138   -0.0026   -0.0253   -0.0240
  Px  C    4    0.0801   -0.0895   -0.2332    0.0951    0.2591   -0.1879    0.0403    0.1484
  Py  C    4    0.0525   -0.1016   -0.1424    0.0161   -0.0949    0.4254   -0.0463   -0.2054
  Pz  C    4    0.0015   -0.0026   -0.0044    0.0001    0.0030    0.0006   -0.0003   -0.0005
  S   C    5    0.0559   -0.0857   -0.0653   -0.0396    0.0924   -0.0561   -0.0480   -0.0215
  Px  C    5    0.0476   -0.0318   -0.1636    0.1388    0.1752   -0.1488    0.0802    0.1747
  Py  C    5   -0.2078    0.3159    0.0919    0.1943   -0.1325    0.0652    0.1498    0.1405
  Pz  C    5   -0.0083    0.0136    0.0027    0.0113   -0.0048    0.0015    0.0086    0.0091
  S   C    6   -0.0541    0.0832   -0.0405    0.0685    0.0443   -0.0097   -0.0105    0.0010
  Px  C    6   -0.1495    0.2117   -0.1312    0.1506    0.1178   -0.0212   -0.0354   -0.0128
  Py  C    6   -0.0797    0.1531    0.1322    0.1627   -0.2043    0.0578    0.2653    0.2594
  Pz  C    6   -0.0057    0.0094    0.0024    0.0087   -0.0049    0.0006    0.0097    0.0105
  S   C    7   -0.0845    0.0369   -0.0836   -0.0773   -0.0340    0.0614    0.0509   -0.0060
  Px  C    7    0.1323   -0.1571    0.1805   -0.0040   -0.0614   -0.1917    0.0952    0.1428
  Py  C    7   -0.2634    0.0580   -0.1388   -0.2202   -0.1186    0.0463    0.1817    0.0390
  Pz  C    7   -0.0111    0.0070   -0.0115   -0.0059   -0.0008    0.0088    0.0022   -0.0033
  S   C    8   -0.0338    0.0229    0.0818   -0.0805    0.0126   -0.0697   -0.0545   -0.0069
  Px  C    8   -0.0430   -0.0757    0.0102   -0.2015    0.0913    0.0738   -0.1948   -0.1094
  Py  C    8    0.1163   -0.1116   -0.1945    0.1166    0.0095    0.2038    0.0299   -0.0696
  Pz  C    8   -0.0015   -0.0011   -0.0002   -0.0027    0.0020    0.0010   -0.0022   -0.0008
  S   C    9    0.0061    0.0378    0.0431   -0.0017   -0.0098   -0.0353   -0.0227   -0.0095
  Px  C    9   -0.0520   -0.0543    0.0791   -0.2476    0.1204   -0.0013   -0.2389   -0.1133
  Py  C    9   -0.0181    0.0144   -0.0990   -0.1587    0.1110    0.0211    0.3914   -0.0477
  Pz  C    9    0.0005    0.0006   -0.0031   -0.0008    0.0014    0.0003    0.0122   -0.0003
  S   C   10    0.0043    0.0349   -0.0386   -0.0100    0.0026    0.0221    0.0173    0.0023
  Px  C   10   -0.2129    0.0429    0.0338   -0.2258   -0.2238   -0.0239   -0.2071    0.0801
  Py  C   10   -0.1251   -0.0259   -0.1284   -0.1412   -0.0764    0.0195    0.4168    0.0668
  Pz  C   10   -0.0055    0.0021   -0.0039   -0.0079   -0.0047    0.0004    0.0059    0.0036
  S   C   11    0.1025    0.0256   -0.0692    0.0668    0.0609    0.0560    0.0452    0.0196
  Px  C   11   -0.1456    0.0650   -0.0151   -0.2024   -0.1604    0.0282   -0.1753    0.1033
  Py  C   11    0.2837    0.1114   -0.1764    0.0799    0.0660    0.1375    0.0205    0.1255
  Pz  C   11   -0.0065    0.0011    0.0012   -0.0062   -0.0059   -0.0001   -0.0059    0.0028
  S   H   12    0.1814    0.0326   -0.0802    0.0867    0.0831    0.0672    0.0626    0.0396
  S   C   13    0.0336    0.0424    0.0649    0.0862   -0.0468   -0.0604   -0.0498   -0.0187
  Px  C   13    0.0989    0.1602    0.1655   -0.0327    0.0061   -0.1697    0.0670   -0.1954
  Py  C   13   -0.0885   -0.0667   -0.0861   -0.2302    0.1070    0.0470    0.1530   -0.0281
  Pz  C   13   -0.0109   -0.0110   -0.0116   -0.0136    0.0068    0.0077    0.0083    0.0038
  S   H   14   -0.1687    0.0751   -0.1224   -0.0952   -0.0405    0.0865    0.0657   -0.0241
  S   H   15   -0.0543    0.1154    0.0754    0.1050   -0.0506    0.0331    0.0209    0.0095
  S   H   16    0.1357   -0.1664    0.0905   -0.0275   -0.1175    0.0761    0.0494    0.0172
  S   H   17    0.1183   -0.1657   -0.0905   -0.0548    0.1153   -0.0798   -0.0498   -0.0163
  S   H   18   -0.0886    0.1262   -0.0809    0.0907    0.0718   -0.0169   -0.0189   -0.0043
  S   H   19   -0.0689    0.0298    0.0958   -0.1053    0.0286   -0.0874   -0.0725    0.0089
  S   H   20    0.0710    0.0819    0.0938    0.0882   -0.0534   -0.0782   -0.0600   -0.0484
  S   C   21   -0.0934   -0.0884    0.0716    0.0379    0.0940    0.0421    0.0376   -0.0134
  Px  C   21    0.1277    0.0347   -0.1650    0.1655   -0.0987   -0.1039    0.1049   -0.2246
  Py  C   21   -0.2413   -0.2554    0.0925    0.1767    0.1645    0.0527    0.1255   -0.1287
  Pz  C   21   -0.0144   -0.0145    0.0049    0.0087    0.0081    0.0029    0.0054   -0.0053
  S   C   22    0.0261    0.0577    0.0574   -0.0762    0.0371    0.0224    0.0070    0.0111
  Px  C   22   -0.0889   -0.1847   -0.1585    0.1870   -0.0858   -0.0482   -0.0172   -0.0175
  Py  C   22   -0.1382   -0.1334    0.1766    0.1246    0.2661    0.0807    0.2351   -0.2436
  Pz  C   22    0.0010    0.0046    0.0089   -0.0042    0.0082    0.0035    0.0051   -0.0040
  S   C   23    0.0602    0.0557   -0.0449   -0.0631   -0.0416   -0.0083   -0.0060    0.0005
  Px  C   23   -0.1820   -0.2109   -0.0905    0.2387   -0.1609   -0.0848   -0.1952    0.1850
  Py  C   23   -0.1612   -0.0938    0.2245    0.0515    0.2206    0.0700    0.1371   -0.1230
  Pz  C   23   -0.0004    0.0002    0.0038    0.0001    0.0043    0.0011    0.0036   -0.0038
  S   C   24   -0.0665   -0.0828   -0.0798    0.0505   -0.0921   -0.0483   -0.0330    0.0049
  Px  C   24   -0.1834   -0.2087   -0.0245    0.2505   -0.0660   -0.0363   -0.1668    0.1907
  Py  C   24    0.1510    0.1798    0.2180    0.0101    0.1945    0.1059   -0.0301    0.1140
  Pz  C   24   -0.0014   -0.0010    0.0060    0.0063    0.0048    0.0027   -0.0049    0.0084
  S   H   25   -0.1511   -0.1268    0.0939    0.0299    0.1099    0.0596    0.0295    0.0068
  S   H   26    0.0579    0.1168    0.0915   -0.1149    0.0467    0.0284    0.0068    0.0138
  S   H   27    0.1484    0.1215   -0.0887   -0.1059   -0.0627   -0.0107   -0.0073    0.0023
  S   H   28   -0.1223   -0.1433   -0.1180    0.0599   -0.1199   -0.0678   -0.0308   -0.0093
  S   C   29   -0.0244   -0.0475    0.0153    0.0620    0.0484    0.0182    0.0197   -0.0100
  Px  C   29    0.2033    0.1006   -0.2467    0.1180   -0.1927   -0.1388    0.0751   -0.2075
  Py  C   29    0.1321    0.0846   -0.1151   -0.0343    0.1516    0.3037   -0.0705    0.3200
  Pz  C   29    0.0058    0.0024   -0.0060    0.0030   -0.0015   -0.0001    0.0024   -0.0022
  S   C   30   -0.0290   -0.0408   -0.0038    0.0665   -0.0244   -0.0158   -0.0202    0.0131
  Px  C   30    0.0970    0.1673    0.2337    0.0451   -0.0225   -0.2157    0.0123   -0.1909
  Py  C   30    0.0333    0.0303    0.1566    0.0647    0.2681    0.2637   -0.1064    0.3330
  Pz  C   30    0.0037    0.0055    0.0116    0.0050    0.0073    0.0030   -0.0042    0.0071


   Root No.      81        82        83        84

                26 a      28 b      29 b      27 a   

                12.643    12.818    13.256    14.629
  
  S   C    1    0.0629    0.0044   -0.0070    0.0366
  Px  C    1    0.2158    0.2150   -0.2039    0.0949
  Py  C    1    0.0148   -0.1370    0.1225    0.0252
  Pz  C    1    0.0171    0.0074   -0.0073    0.0082
  S   C    2    0.0005   -0.0249    0.0237    0.0227
  Px  C    2    0.2557    0.2090   -0.1947    0.1326
  Py  C    2    0.1452    0.0590   -0.0450    0.1115
  Pz  C    2    0.0128    0.0102   -0.0093    0.0062
  S   C    3   -0.0089   -0.0036   -0.0127    0.0261
  Px  C    3    0.2698    0.0808   -0.2381    0.2197
  Py  C    3    0.1382    0.1164   -0.0149    0.0984
  Pz  C    3   -0.0007   -0.0000    0.0030   -0.0023
  S   C    4   -0.0055    0.0047    0.0114    0.0279
  Px  C    4    0.2514   -0.1621    0.1597    0.2154
  Py  C    4    0.1062   -0.0185    0.2053    0.1303
  Pz  C    4    0.0039   -0.0014    0.0032    0.0040
  S   C    5    0.0250    0.0178   -0.0167    0.0280
  Px  C    5    0.2324   -0.1767    0.1588    0.1756
  Py  C    5    0.0808   -0.1492    0.1452    0.0538
  Pz  C    5    0.0068   -0.0091    0.0084    0.0045
  S   C    6    0.0658   -0.0066    0.0096    0.0377
  Px  C    6    0.1374    0.0014    0.0065    0.0740
  Py  C    6    0.0724   -0.2591    0.2429    0.0678
  Pz  C    6    0.0055   -0.0105    0.0097    0.0043
  S   C    7   -0.0641    0.0128    0.0047    0.0099
  Px  C    7    0.2264    0.0917   -0.2443    0.2410
  Py  C    7   -0.0041    0.1131   -0.1221    0.1510
  Pz  C    7   -0.0077   -0.0000    0.0043   -0.0028
  S   C    8   -0.0571   -0.0050   -0.0098    0.0097
  Px  C    8    0.0989   -0.1517    0.2517    0.2731
  Py  C    8    0.1604   -0.0321    0.1516    0.1238
  Pz  C    8    0.0015   -0.0020    0.0032    0.0023
  S   C    9   -0.0600    0.0143   -0.0028    0.0021
  Px  C    9    0.0298   -0.1372    0.2397    0.2757
  Py  C    9   -0.0364    0.3150    0.1064    0.1471
  Pz  C    9   -0.0002    0.0088    0.0006    0.0010
  S   C   10   -0.0637   -0.0073   -0.0053    0.0056
  Px  C   10   -0.0098   -0.1886   -0.2119    0.2691
  Py  C   10    0.0512    0.2818   -0.1388    0.1426
  Pz  C   10   -0.0022    0.0023   -0.0070    0.0077
  S   C   11   -0.0714    0.0109   -0.0145   -0.0047
  Px  C   11   -0.0890   -0.1918   -0.2252    0.2740
  Py  C   11   -0.1846   -0.0457   -0.1565    0.1374
  Pz  C   11   -0.0012   -0.0055   -0.0064    0.0075
  S   H   12   -0.0532    0.0360   -0.0135   -0.0084
  S   C   13   -0.0543   -0.0088   -0.0004   -0.0147
  Px  C   13   -0.1786    0.1671    0.2347    0.2548
  Py  C   13    0.0124    0.1385    0.1118    0.1575
  Pz  C   13    0.0035    0.0053    0.0010    0.0039
  S   H   14   -0.0575    0.0327    0.0122    0.0015
  S   H   15    0.0745    0.0003   -0.0021    0.0385
  S   H   16    0.0019   -0.0232    0.0289    0.0150
  S   H   17    0.0206    0.0230   -0.0289    0.0162
  S   H   18    0.0781    0.0001    0.0027    0.0389
  S   H   19   -0.0383   -0.0319   -0.0050    0.0130
  S   H   20   -0.0477   -0.0238    0.0170    0.0010
  S   C   21    0.0015   -0.0211   -0.0134   -0.0231
  Px  C   21   -0.2329   -0.1822   -0.1312    0.1806
  Py  C   21   -0.1226   -0.1509   -0.1149    0.0622
  Pz  C   21   -0.0066   -0.0067   -0.0054    0.0040
  S   C   22    0.0627    0.0069    0.0117   -0.0392
  Px  C   22   -0.1309   -0.0048   -0.0169    0.0765
  Py  C   22   -0.1314   -0.2616   -0.1829    0.0746
  Pz  C   22    0.0012   -0.0051   -0.0033   -0.0003
  S   C   23    0.0632   -0.0126   -0.0045   -0.0384
  Px  C   23   -0.1746    0.2452    0.1483    0.1008
  Py  C   23   -0.0580   -0.1261   -0.0843    0.0313
  Pz  C   23   -0.0011   -0.0034   -0.0021    0.0009
  S   C   24    0.0164    0.0146    0.0134   -0.0276
  Px  C   24   -0.2278    0.2468    0.1404    0.1440
  Py  C   24   -0.1677    0.0991    0.0361    0.1289
  Pz  C   24   -0.0108    0.0093    0.0047    0.0078
  S   H   25    0.0043   -0.0204   -0.0203   -0.0148
  S   H   26    0.0749    0.0036    0.0090   -0.0403
  S   H   27    0.0817   -0.0111   -0.0015   -0.0423
  S   H   28    0.0181    0.0183    0.0224   -0.0187
  S   C   29   -0.0130    0.0041    0.0124   -0.0291
  Px  C   29   -0.2241   -0.1709   -0.1346    0.2118
  Py  C   29   -0.1637   -0.0474   -0.2165    0.1528
  Pz  C   29   -0.0055   -0.0034   -0.0041    0.0045
  S   C   30   -0.0087    0.0012   -0.0091   -0.0290
  Px  C   30   -0.2114    0.1588    0.2261    0.2247
  Py  C   30   -0.1860    0.1383   -0.0173    0.1228
  Pz  C   30   -0.0113    0.0083    0.0043    0.0083


              NET ATOMIC CHARGES AND DIPOLE CONTRIBUTIONS

  ATOM NO.   TYPE          CHARGE      No. of ELECS.   s-Pop       p-Pop       
    1          C          -0.021449        4.0214     1.08778     2.93367
    2          C          -0.026112        4.0261     1.09575     2.93036
    3          C           0.007970        3.9920     1.07623     2.91580
    4          C           0.008591        3.9914     1.07086     2.92055
    5          C          -0.026093        4.0261     1.09154     2.93455
    6          C          -0.025970        4.0260     1.09232     2.93365
    7          C          -0.038395        4.0384     1.09580     2.94260
    8          C          -0.035342        4.0353     1.09694     2.93841
    9          C           0.015809        3.9842     1.05403     2.93016
   10          C           0.013017        3.9870     1.05835     2.92863
   11          C          -0.030578        4.0306     1.08933     2.94125
   12          H           0.020831        0.9792     0.97917
   13          C          -0.038337        4.0383     1.10247     2.93587
   14          H           0.028244        0.9718     0.97176
   15          H           0.017911        0.9821     0.98209
   16          H           0.029351        0.9706     0.97065
   17          H           0.031316        0.9687     0.96868
   18          H           0.020370        0.9796     0.97963
   19          H           0.021516        0.9785     0.97848
   20          H           0.019800        0.9802     0.98020
   21          C          -0.030999        4.0310     1.11150     2.91950
   22          C          -0.025601        4.0256     1.09329     2.93232
   23          C          -0.031090        4.0311     1.09366     2.93743
   24          C          -0.027808        4.0278     1.09665     2.93116
   25          H           0.016358        0.9836     0.98364
   26          H           0.027942        0.9721     0.97206
   27          H           0.027322        0.9727     0.97268
   28          H           0.025653        0.9743     0.97435
   29          C           0.012220        3.9878     1.06666     2.92112
   30          C           0.013554        3.9864     1.06605     2.92040
 DIPOLE           X         Y         Z       TOTAL
 POINT-CHG.    -0.112    -0.028    -0.043     0.123
 HYBRID         0.037     0.054    -0.239     0.248
 SUM           -0.075     0.025    -0.282     0.293


          ATOMIC ORBITAL ELECTRON POPULATIONS

     Atom    s        px        py        pz   
    1  C   1.08778   0.98060   0.95563   0.99743
    2  C   1.09575   0.98166   0.94579   1.00292
    3  C   1.07623   0.97113   0.96076   0.98391
    4  C   1.07086   0.96784   0.96860   0.98411
    5  C   1.09154   0.97710   0.95545   1.00199
    6  C   1.09232   0.94655   0.98707   1.00003
    7  C   1.09580   0.96733   0.95584   1.01942
    8  C   1.09694   0.96345   0.95896   1.01600
    9  C   1.05403   0.97018   0.97789   0.98210
   10  C   1.05835   0.97364   0.97451   0.98048
   11  C   1.08933   0.96620   0.95621   1.01884
   12  H   0.97917
   13  C   1.10247   0.96079   0.96236   1.01272
   14  H   0.97176
   15  H   0.98209
   16  H   0.97065
   17  H   0.96868
   18  H   0.97963
   19  H   0.97848
   20  H   0.98020
   21  C   1.11150   0.96053   0.95404   1.00492
   22  C   1.09329   0.94618   0.99130   0.99484
   23  C   1.09366   0.97958   0.96148   0.99637
   24  C   1.09665   0.97615   0.94813   1.00689
   25  H   0.98364
   26  H   0.97206
   27  H   0.97268
   28  H   0.97435
   29  C   1.06666   0.96116   0.97444   0.98551
   30  C   1.06605   0.97133   0.96539   0.98368

 **********************
 *                    *
 * JOB ENDED NORMALLY *
 *                    *
 **********************



 TOTAL JOB TIME:             1.26 SECONDS

 == MOPAC DONE ==


          MOPAC Job: "./tetraceneTraj/tetracene_231.mop" ended normally on Feb 15, 2023, at 11:22.

rm: cannot remove ./tetraceneTraj/tetracene_231.cim: No such file or directory
rm: cannot remove ./tetraceneTraj/tetracene_231.end: No such file or directory
rm: cannot remove ./tetraceneTraj/tetracene_231.log: No such file or directory
rm: cannot remove ./tetraceneTraj/tetracene_231.temp: No such file or directory
rm: cannot remove ./tetraceneTraj/tetracene_231.ple: No such file or directory
rm: cannot remove ./tetraceneTraj/tetracene_231.sts: No such file or directory
