 *******************************************************************************
 ** Site#:    0         For non-commercial use only    Version 20.173L 64BITS **
 *******************************************************************************
 ** Cite this program as: MOPAC2016, Version: 20.173L, James J. P. Stewart,   **
 ** Stewart Computational Chemistry, web-site: HTTP://OpenMOPAC.net.          **
 *******************************************************************************
 **                                                                           **
 **                                MOPAC2016                                  **
 **                                                                           **
 *******************************************************************************

                              INDO CALCULATION RESULTS

 *******************************************************************************
 *  CALCULATION DONE:                                Wed Feb 15 11:37:35 2023  *
 *  INDO       - The INDO Hamiltonian to be used
 *
 *
 *
 *                 CHARGE ON SYSTEM = 0
 *
 *
 *
 *  C.I.=(N,M) - 3 DOUBLY FILLED LEVELS USED IN A C.I. INVOLVING 6 M.O.'S
 *  T=         - A TIME OF 172800.0 SECONDS REQUESTED
 *  DUMP=N     - RESTART FILE WRITTEN EVERY 7200.0 SECONDS REQUESTED
 *  RELSCF     - DEFAULT SCF CRITERION MULTIPLIED BY 0.0000
 *              (DEFAULT SCF CRITERION = 0.00010)
 *  ALLVEC     - PRINT ALL EIGENVECTORS
 **********
 *  WARNING: Specified print options may not behave as expected with INDO
 **********
 *******************************************************************************
INDO C.I.=(6,3) AllVEC CHARGE=0 RELSCF=0.000001


   ATOM   CHEMICAL          X               Y               Z
  NUMBER   SYMBOL      (ANGSTROMS)     (ANGSTROMS)     (ANGSTROMS)
 
     1       C         18.45577144  *  19.49867605  *  22.40369427  *
     2       C         19.85035404  *  19.42000761  *  22.46573076  *
     3       C         20.70365120  *  20.66056165  *  22.48607186  *
     4       C         19.95226936  *  21.93284746  *  22.45756932  *
     5       C         18.52484975  *  21.96154500  *  22.42287832  *
     6       C         17.78306798  *  20.82347903  *  22.29420613  *
     7       C         22.09052847  *  20.64624497  *  22.51739042  *
     8       C         20.69834619  *  23.13568148  *  22.56224936  *
     9       C         22.12208029  *  23.20450178  *  22.52745306  *
    10       C         22.80300996  *  21.83834823  *  22.49878040  *
    11       C         24.25951332  *  21.79248247  *  22.53693519  *
    12       H         24.65388051  *  20.77451899  *  22.56138370  *
    13       C         22.92869078  *  24.39850178  *  22.64316723  *
    14       H         22.62137248  *  19.66476544  *  22.60462009  *
    15       H         17.76964640  *  18.60320753  *  22.33302742  *
    16       H         20.37640840  *  18.43096950  *  22.43432214  *
    17       H         17.99342780  *  22.96249465  *  22.29197470  *
    18       H         16.67743172  *  20.88496238  *  22.22228659  *
    19       H         20.10466573  *  24.03214474  *  22.64171752  *
    20       H         22.45710270  *  25.37008052  *  22.60036438  *
    21       C         26.51853511  *  23.05829490  *  22.54246817  *
    22       C         27.25683670  *  24.26938154  *  22.45549281  *
    23       C         26.53757660  *  25.56293326  *  22.54642099  *
    24       C         25.14334672  *  25.54217857  *  22.58304642  *
    25       H         27.04043085  *  22.04707925  *  22.56260541  *
    26       H         28.29840275  *  24.19314410  *  22.23342063  *
    27       H         27.11596288  *  26.50920500  *  22.43774996  *
    28       H         24.53789131  *  26.44455690  *  22.61546648  *
    29       C         25.03491810  *  22.96449477  *  22.55642229  *
    30       C         24.36633520  *  24.29680009  *  22.53874554  *
 


          CARTESIAN COORDINATES 

    NO.       ATOM           X           Y           Z

     1         C         18.4558     19.4987     22.4037
     2         C         19.8504     19.4200     22.4657
     3         C         20.7037     20.6606     22.4861
     4         C         19.9523     21.9328     22.4576
     5         C         18.5248     21.9615     22.4229
     6         C         17.7831     20.8235     22.2942
     7         C         22.0905     20.6462     22.5174
     8         C         20.6983     23.1357     22.5622
     9         C         22.1221     23.2045     22.5275
    10         C         22.8030     21.8383     22.4988
    11         C         24.2595     21.7925     22.5369
    12         H         24.6539     20.7745     22.5614
    13         C         22.9287     24.3985     22.6432
    14         H         22.6214     19.6648     22.6046
    15         H         17.7696     18.6032     22.3330
    16         H         20.3764     18.4310     22.4343
    17         H         17.9934     22.9625     22.2920
    18         H         16.6774     20.8850     22.2223
    19         H         20.1047     24.0321     22.6417
    20         H         22.4571     25.3701     22.6004
    21         C         26.5185     23.0583     22.5425
    22         C         27.2568     24.2694     22.4555
    23         C         26.5376     25.5629     22.5464
    24         C         25.1433     25.5422     22.5830
    25         H         27.0404     22.0471     22.5626
    26         H         28.2984     24.1931     22.2334
    27         H         27.1160     26.5092     22.4377
    28         H         24.5379     26.4446     22.6155
    29         C         25.0349     22.9645     22.5564
    30         C         24.3663     24.2968     22.5387

           Empirical Formula: C18 H12  =    30 atoms



      MOLECULAR POINT GROUP   :   C1  


      RHF CALCULATION, NO. OF DOUBLY OCCUPIED LEVELS = 42

 WARNING: INDO only performs single-point calculations
  SCF CRITERION =    0.1000E-09

 Summary of symmetry occupancy in each shell:

 SHELL     
    1   42
    v   42
 TOTAL  84




    ROOT NO.    1           2           3           4           5           6

           -44.15522   -42.33097   -39.85109   -36.60034   -35.65813   -33.88953
  
  
  S  C   1   0.14124    -0.18346    -0.26407    -0.22571    -0.11371     0.13944
 PX  C   1   0.03840    -0.04260    -0.04271    -0.00655    -0.04776     0.07967
 PY  C   1   0.05297    -0.06588    -0.08723    -0.06311     0.00720    -0.03387
 PZ  C   1  -0.00039     0.00095     0.00248     0.00391    -0.00044     0.00188
  
  S  C   2   0.17554    -0.19224    -0.20423    -0.08962    -0.20315     0.27926
 PX  C   2  -0.00493     0.02682     0.07689     0.10215    -0.02192     0.02326
 PY  C   2   0.07238    -0.07261    -0.06129    -0.00386    -0.02224     0.02052
 PZ  C   2  -0.00197     0.00310     0.00540     0.00539     0.00176    -0.00242
  
  S  C   3   0.32428    -0.23166    -0.03627     0.18373    -0.17672     0.21076
 PX  C   3   0.00416     0.05638     0.15121     0.12928    -0.06707     0.04180
 PY  C   3   0.07022    -0.02268     0.05772     0.08425     0.10327    -0.11631
 PZ  C   3  -0.00042     0.00234     0.00527     0.00448    -0.00018     0.00006
  
  S  C   4   0.33248    -0.25264    -0.08231     0.13812     0.19731    -0.18712
 PX  C   4   0.04972     0.02214     0.14196     0.15429    -0.01916     0.08079
 PY  C   4  -0.03021     0.05077     0.07746     0.04685     0.13969    -0.12629
 PZ  C   4   0.00508    -0.00103     0.00657     0.01003     0.00525    -0.00144
  
  S  C   5   0.19825    -0.22137    -0.24898    -0.13645     0.15851    -0.25943
 PX  C   5   0.06144    -0.04819    -0.00825     0.05805     0.05163    -0.03393
 PY  C   5  -0.04525     0.06442     0.10099     0.09016     0.04865    -0.03332
 PZ  C   5  -0.00224     0.00413     0.00820     0.00919    -0.00117     0.00641
  
  S  C   6   0.14981    -0.19564    -0.28501    -0.25075     0.01121    -0.09154
 PX  C   6   0.06676    -0.07993    -0.09771    -0.05620    -0.00226    -0.00533
 PY  C   6   0.00756    -0.00634    -0.00087     0.01179     0.05729    -0.09600
 PZ  C   6   0.00808    -0.01023    -0.01396    -0.01053    -0.00003    -0.00260
  
  S  C   7   0.28073    -0.08250     0.18996     0.22500    -0.30765     0.16253
 PX  C   7  -0.04435     0.06751     0.03577    -0.08915    -0.02837    -0.08549
 PY  C   7   0.08906    -0.00260     0.09037     0.05082     0.00451    -0.04300
 PZ  C   7  -0.00090     0.00155     0.00089    -0.00173    -0.00043    -0.00099
  
  S  C   8   0.27302    -0.09680     0.13743     0.18191     0.35360    -0.17441
 PX  C   8   0.04011     0.03899     0.09412     0.00057     0.00570     0.08584
 PY  C   8  -0.08572     0.05818    -0.01661    -0.09328     0.00675     0.03674
 PZ  C   8  -0.00637     0.00413    -0.00117    -0.00623    -0.00487     0.00556
  
  S  C   9   0.31217     0.07263     0.26482    -0.05202     0.25672     0.02240
 PX  C   9   0.00139     0.09262     0.00728    -0.17836    -0.08216     0.05839
 PY  C   9  -0.06501     0.03714    -0.05709    -0.10125     0.10654     0.05249
 PZ  C   9   0.00357     0.00286     0.00383    -0.00495     0.00759     0.00240
  
  S  C  10   0.33310     0.06805     0.30488    -0.01368    -0.20808    -0.02459
 PX  C  10  -0.04779     0.08408    -0.02930    -0.18625    -0.08246    -0.07183
 PY  C  10   0.02258     0.05422     0.01276    -0.11044     0.14859    -0.02418
 PZ  C  10   0.00524     0.00246     0.00537    -0.00305    -0.00206    -0.00060
  
  S  C  11   0.20848     0.18534     0.14760    -0.23404    -0.29594    -0.21765
 PX  C  11  -0.05319     0.00937    -0.09061     0.00917     0.02404    -0.06519
 PY  C  11   0.04845     0.08144    -0.00053    -0.10273     0.02233    -0.04012
 PZ  C  11   0.00001     0.00038    -0.00034    -0.00082     0.00079    -0.00017
  
  S  H  12   0.06955     0.05248     0.05560    -0.05996    -0.15577    -0.09705
  
  S  C  13   0.19544     0.19526     0.09925    -0.25312     0.28883     0.23516
 PX  C  13   0.01690     0.07529    -0.04602    -0.06377    -0.02805     0.07161
 PY  C  13  -0.06697    -0.03517    -0.07297     0.07170    -0.00875     0.04605
 PZ  C  13  -0.00900    -0.00895    -0.00560     0.01341    -0.01230    -0.00952
  
  S  H  14   0.08391    -0.02135     0.05833     0.06034    -0.15989     0.07565
  
  S  H  15   0.03380    -0.04710    -0.07607    -0.07850    -0.04147     0.05472
  
  S  H  16   0.05066    -0.05261    -0.05044    -0.01549    -0.09435     0.13054
  
  S  H  17   0.05871    -0.06344    -0.06858    -0.03646     0.08730    -0.13087
  
  S  H  18   0.03788    -0.05289    -0.08591    -0.09013     0.00797    -0.04371
  
  S  H  19   0.08639    -0.03379     0.03208     0.04642     0.17778    -0.09663
  
  S  H  20   0.06183     0.06321     0.02418    -0.07503     0.14751     0.12354
  
  S  C  21   0.10327     0.24855    -0.20808     0.13255    -0.14419    -0.28499
 PX  C  21  -0.03528    -0.06346     0.01463     0.05635     0.03039     0.03255
 PY  C  21   0.02212     0.07020    -0.08790     0.09833     0.01776     0.01784
 PZ  C  21  -0.00090    -0.00286     0.00371    -0.00491     0.00150     0.00392
  
  S  C  22   0.07776     0.22210    -0.25082     0.27464    -0.05916    -0.13815
 PX  C  22  -0.03486    -0.09183     0.08806    -0.06455     0.00772     0.00963
 PY  C  22  -0.00243    -0.00202    -0.00723     0.02363     0.03527     0.08538
 PZ  C  22   0.00207     0.00553    -0.00538     0.00374    -0.00014     0.00023
  
  S  C  23   0.07940     0.22688    -0.25653     0.27401     0.03495     0.09517
 PX  C  23  -0.02239    -0.05576     0.04691    -0.01601    -0.03567    -0.08526
 PY  C  23  -0.02849    -0.07748     0.07926    -0.07020     0.01859     0.04560
 PZ  C  23  -0.00099    -0.00326     0.00454    -0.00664     0.00091     0.00201
  
  S  C  24   0.11070     0.26858    -0.22985     0.13189     0.13834     0.28547
 PX  C  24  -0.00139     0.02331    -0.06562     0.12078    -0.04475    -0.05975
 PY  C  24  -0.04159    -0.09123     0.05996    -0.00395    -0.00926    -0.00847
 PZ  C  24  -0.00143    -0.00414     0.00475    -0.00503    -0.00028    -0.00084
  
  S  H  25   0.03080     0.07031    -0.05347     0.02971    -0.07113    -0.13621
  
  S  H  26   0.02078     0.06300    -0.07854     0.10153    -0.02634    -0.06646
  
  S  H  27   0.01974     0.06012    -0.07553     0.09573     0.01507     0.04245
  
  S  H  28   0.03743     0.08582    -0.06651     0.02549     0.08082     0.15764
  
  S  C  29   0.20283     0.33216    -0.07353    -0.17342    -0.16601    -0.23557
 PX  C  29  -0.04632    -0.01139    -0.10699     0.15907    -0.01877    -0.06898
 PY  C  29   0.01642     0.06607    -0.08403     0.05759     0.09200     0.10643
 PZ  C  29  -0.00136    -0.00248     0.00102     0.00001     0.00287     0.00443
  
  S  C  30   0.20611     0.35062    -0.10337    -0.16868     0.13758     0.20820
 PX  C  30  -0.01218     0.04427    -0.12191     0.14748    -0.07712    -0.07702
 PY  C  30  -0.04089    -0.03100    -0.05550     0.09880     0.08675     0.15501
 PZ  C  30   0.00395     0.00658    -0.00116    -0.00586     0.00562     0.00920




    ROOT NO.    7           8           9          10          11          12

           -31.62011   -31.10425   -28.76555   -28.02936   -26.86538   -25.95203
  
  
  S  C   1   0.13732     0.27708     0.19225    -0.25978    -0.06256     0.20348
 PX  C   1   0.11851    -0.05971     0.11696     0.15327    -0.04153     0.03097
 PY  C   1  -0.06914     0.01811    -0.09449     0.00363     0.09735    -0.05559
 PZ  C   1   0.00467    -0.00907     0.00437     0.01488    -0.00193    -0.00083
  
  S  C   2   0.29627     0.00648     0.20211     0.12552    -0.13744    -0.03702
 PX  C   2  -0.01123    -0.13699    -0.12765     0.12108    -0.00283    -0.21179
 PY  C   2   0.00556    -0.07100    -0.05581     0.08756     0.11511    -0.04134
 PZ  C   2  -0.00328    -0.00670    -0.00637     0.00520     0.00175    -0.00722
  
  S  C   3   0.13639    -0.22673    -0.10828     0.12256     0.14158    -0.14372
 PX  C   3  -0.07199     0.02588    -0.15405    -0.14457    -0.06634    -0.10294
 PY  C   3  -0.07479    -0.02244     0.00458    -0.10261     0.15981     0.18022
 PZ  C   3  -0.00115    -0.00039    -0.00241    -0.00351    -0.00388    -0.00301
  
  S  C   4  -0.02216    -0.25541     0.11537     0.11624     0.05893     0.20312
 PX  C   4   0.11173     0.02334     0.03081    -0.17416     0.10872     0.00178
 PY  C   4  -0.02684     0.02571     0.10447    -0.08604    -0.20370     0.03673
 PZ  C   4   0.00688    -0.00412     0.01033    -0.00633    -0.00223     0.00700
  
  S  C   5  -0.27380    -0.07553    -0.15761     0.15166    -0.06852    -0.08467
 PX  C   5   0.06027    -0.14297     0.15458     0.12975    -0.01498     0.19935
 PY  C   5   0.02214    -0.07394     0.07695     0.03641    -0.12899     0.03911
 PZ  C   5   0.01491    -0.00719     0.01900     0.00232    -0.00056     0.01935
  
  S  C   6  -0.20902     0.23583    -0.22572    -0.22934     0.06714    -0.15689
 PX  C   6   0.00514    -0.02510     0.03517     0.09288     0.03066     0.07073
 PY  C   6  -0.12081    -0.09022    -0.13222     0.14262    -0.00968    -0.15033
 PZ  C   6  -0.00509     0.00453    -0.00353     0.00096     0.00509     0.00153
  
  S  C   7  -0.15913    -0.02318    -0.23887    -0.07338    -0.16071    -0.07071
 PX  C   7  -0.15020     0.12145     0.07001    -0.00014    -0.15748     0.16230
 PY  C   7  -0.07041     0.07327     0.01748    -0.10166     0.12501     0.16801
 PZ  C   7  -0.00201     0.00172     0.00044     0.00130    -0.00696    -0.00132
  
  S  C   8   0.13625     0.04232     0.21009    -0.14635    -0.20021    -0.05265
 PX  C   8   0.08832     0.18010    -0.06352    -0.09637     0.12118    -0.14998
 PY  C   8   0.03695     0.09379    -0.02039     0.03958    -0.15450    -0.16385
 PZ  C   8   0.00224     0.00536    -0.00288     0.00336    -0.00541    -0.00939
  
  S  C   9   0.17426     0.29853    -0.00490    -0.01136     0.10989    -0.16347
 PX  C   9  -0.05580    -0.00532    -0.08118     0.18863     0.12364     0.08390
 PY  C   9   0.09409     0.00220    -0.06026     0.12148    -0.18871    -0.15437
 PZ  C   9   0.00739     0.00835    -0.00250     0.00503    -0.00572    -0.01295
  
  S  C  10  -0.22570     0.20129     0.01683    -0.00542     0.06203     0.19532
 PX  C  10  -0.06909    -0.02005     0.13203     0.18034    -0.11226     0.02633
 PY  C  10   0.14121     0.05205     0.06841     0.06058     0.23892    -0.05465
 PZ  C  10  -0.00265     0.00471     0.00118     0.00241    -0.00108     0.00016
  
  S  C  11  -0.13884    -0.02483     0.25126     0.11707    -0.14084    -0.04232
 PX  C  11   0.13968    -0.12955     0.02269    -0.08560    -0.02209    -0.19548
 PY  C  11   0.09559    -0.06424     0.02987     0.01368     0.20583    -0.07042
 PZ  C  11   0.00193    -0.00211     0.00031    -0.00101    -0.00083    -0.00428
  
  S  H  12  -0.09137    -0.00608     0.10723     0.03364    -0.20330    -0.02778
  
  S  C  13   0.11429     0.05135    -0.22652     0.18062    -0.15698    -0.01430
 PX  C  13  -0.08513    -0.16664    -0.04262    -0.01395     0.06365     0.21707
 PY  C  13  -0.06264    -0.09289    -0.03209    -0.06880    -0.17530     0.07377
 PZ  C  13  -0.00569    -0.00381     0.00921    -0.01105     0.00140     0.00029
  
  S  H  14  -0.08104    -0.01482    -0.09975     0.01783    -0.20171    -0.08128
  
  S  H  15   0.05655     0.14477     0.09582    -0.18273    -0.06083     0.11673
  
  S  H  16   0.13470     0.00178     0.08952     0.05091    -0.13477    -0.05945
  
  S  H  17  -0.13304    -0.03402    -0.07555     0.05606    -0.10455    -0.08091
  
  S  H  18  -0.10758     0.12541    -0.13558    -0.16272     0.01517    -0.12701
  
  S  H  19   0.05318     0.00879     0.11010    -0.02036    -0.22801    -0.06400
  
  S  H  20   0.04264     0.01822    -0.11504     0.05733    -0.20015    -0.02638
  
  S  C  21   0.28607     0.00007    -0.20988    -0.11661    -0.15065     0.02126
 PX  C  21  -0.00623     0.15180    -0.10350     0.16071    -0.06802     0.17671
 PY  C  21  -0.00214     0.08217    -0.05804     0.05098     0.06500     0.11507
 PZ  C  21  -0.00457    -0.00750     0.00779    -0.00764     0.00227    -0.01062
  
  S  C  22   0.12105     0.29611    -0.17062     0.26518    -0.01894     0.19286
 PX  C  22   0.00159     0.02322    -0.02518     0.09483    -0.03879     0.05928
 PY  C  22  -0.13120     0.05246     0.16075     0.09625     0.11084    -0.11564
 PZ  C  22  -0.00097    -0.00410     0.00353    -0.01198     0.00339    -0.00866
  
  S  C  23  -0.20594     0.22796     0.24689     0.19151     0.11231    -0.20398
 PX  C  23   0.09453     0.09481    -0.08571     0.16260     0.02447     0.06425
 PY  C  23  -0.05857    -0.03844     0.08726    -0.00763    -0.02244    -0.10499
 PZ  C  23   0.00023    -0.01173    -0.00113    -0.01550    -0.00428    -0.00005
  
  S  C  24  -0.28367    -0.09357     0.16382    -0.14690    -0.08946    -0.03297
 PX  C  24  -0.03717     0.13362     0.15090     0.06737     0.12515    -0.18726
 PY  C  24  -0.03442     0.07174     0.08055     0.07766    -0.03901    -0.10490
 PZ  C  24   0.00258    -0.00326    -0.00358    -0.00133    -0.00317     0.00287
  
  S  H  25   0.13269    -0.00195    -0.09495    -0.03932    -0.13199    -0.00407
  
  S  H  26   0.06650     0.15984    -0.10816     0.18732    -0.03745     0.14212
  
  S  H  27  -0.10003     0.11999     0.13874     0.14036     0.05296    -0.13669
  
  S  H  28  -0.14247    -0.05361     0.06632    -0.05535    -0.11605    -0.00636
  
  S  C  29   0.15324    -0.24248     0.08594    -0.14418     0.11073    -0.17499
 PX  C  29   0.09510    -0.00321    -0.08722    -0.15787    -0.12502    -0.06152
 PY  C  29   0.01051    -0.03454    -0.11858    -0.08080     0.11694     0.12193
 PZ  C  29  -0.00211    -0.00077    -0.00112    -0.00079    -0.00168     0.00086
  
  S  C  30  -0.03368    -0.25298    -0.11537    -0.09693     0.05186     0.18555
 PX  C  30  -0.02942    -0.04967     0.10413    -0.18623     0.05816    -0.06476
 PY  C  30  -0.11842    -0.00558    -0.02912    -0.06112    -0.20174     0.08926
 PZ  C  30  -0.00230    -0.00857    -0.00649    -0.00193    -0.00308     0.00974




    ROOT NO.   13          14          15          16          17          18

           -24.99767   -23.74106   -22.63069   -21.65626   -20.45576   -19.38479
  
  
  S  C   1   0.01485    -0.13986     0.02921    -0.16987    -0.04052     0.01767
 PX  C   1   0.03939     0.24636    -0.03162     0.01434     0.21461     0.15664
 PY  C   1  -0.14083     0.00876     0.18217     0.13546    -0.12855     0.17687
 PZ  C   1   0.00282     0.01997    -0.00298     0.00190     0.01782     0.01283
  
  S  C   2   0.16395     0.18307    -0.15327     0.09744     0.11634    -0.00795
 PX  C   2   0.05023    -0.03449    -0.06601     0.16762    -0.13933    -0.14988
 PY  C   2  -0.17084     0.00660     0.20068     0.10301    -0.15299     0.09338
 PZ  C   2  -0.00098    -0.00170     0.00132     0.00629    -0.00695    -0.00219
  
  S  C   3  -0.11755    -0.10385     0.01260     0.10819    -0.06715    -0.13259
 PX  C   3   0.14096    -0.16152    -0.12528    -0.12951    -0.01256     0.01845
 PY  C   3  -0.17257    -0.07747     0.03069    -0.11231     0.15514    -0.07881
 PZ  C   3   0.00538    -0.00781    -0.00204    -0.00150    -0.00778     0.00119
  
  S  C   4  -0.09555    -0.09195     0.03847    -0.09544    -0.03490    -0.15283
 PX  C   4  -0.08837    -0.15411    -0.07953     0.16055     0.11055    -0.10816
 PY  C   4   0.22530    -0.09669    -0.13480    -0.02667    -0.07317     0.00961
 PZ  C   4  -0.00021    -0.01625     0.00083     0.00787    -0.01118    -0.00449
  
  S  C   5   0.13949     0.16984    -0.11042    -0.12910     0.10513     0.02897
 PX  C   5  -0.06351    -0.01800     0.15696    -0.15641    -0.18052     0.00034
 PY  C   5   0.16685    -0.04672    -0.15242    -0.11790    -0.01637    -0.16235
 PZ  C   5  -0.00922    -0.01184     0.01884    -0.00614    -0.02497     0.00250
  
  S  C   6  -0.03493    -0.12633    -0.00745     0.16636    -0.04689    -0.01603
 PX  C   6  -0.08067     0.14562     0.15869    -0.09028     0.01185     0.26919
 PY  C   6   0.08465     0.19892    -0.14207     0.04910     0.23852     0.01937
 PZ  C   6  -0.00916     0.00889     0.01609    -0.00245    -0.00143     0.02938
  
  S  C   7   0.12767    -0.09597     0.08670    -0.18485    -0.06192     0.15467
 PX  C   7   0.03218     0.15515     0.16129    -0.05257     0.02907     0.12605
 PY  C   7  -0.09300     0.09700    -0.04903    -0.04638     0.21815    -0.01918
 PZ  C   7   0.00442    -0.00058     0.00636    -0.00147    -0.01044     0.00754
  
  S  C   8   0.10106    -0.09431     0.04301     0.20885    -0.05580     0.13778
 PX  C   8  -0.11619     0.17059     0.03622     0.09570     0.17603     0.09544
 PY  C   8   0.06025     0.07153     0.15402     0.07669    -0.10532     0.16544
 PZ  C   8   0.00052     0.00271     0.01420     0.00550    -0.01331     0.01162
  
  S  C   9  -0.02323     0.22264    -0.00919     0.00264    -0.02991     0.00806
 PX  C   9   0.03295     0.01917    -0.08687    -0.20888    -0.16851    -0.16791
 PY  C   9  -0.01996    -0.08035     0.23247    -0.07420    -0.06864    -0.07588
 PZ  C   9  -0.00058     0.00299     0.01580    -0.00378    -0.00895    -0.00143
  
  S  C  10   0.03203     0.22985    -0.05344    -0.03450    -0.00696     0.00112
 PX  C  10   0.01002    -0.02733     0.08810     0.16319    -0.16703    -0.13591
 PY  C  10  -0.00196     0.06773    -0.20905     0.07233    -0.11417    -0.07785
 PZ  C  10   0.00176     0.00317     0.00330     0.00011    -0.00654     0.00197
  
  S  C  11  -0.15554    -0.09853     0.02055     0.21771     0.06262    -0.14028
 PX  C  11  -0.12541    -0.16445    -0.05034    -0.03342     0.18152     0.06918
 PY  C  11   0.07321    -0.08318    -0.16330    -0.06077    -0.11125     0.12718
 PZ  C  11  -0.00229    -0.00470    -0.00035    -0.00122     0.00361     0.00300
  
  S  H  12  -0.14790    -0.04324     0.10514     0.13490     0.14500    -0.13355
  
  S  C  13  -0.11811    -0.10767     0.10001    -0.19741     0.08965    -0.15440
 PX  C  13   0.06236    -0.13509    -0.17909     0.06605     0.01403     0.14637
 PY  C  13  -0.11685    -0.07948     0.02665     0.04115     0.23269    -0.01158
 PZ  C  13   0.00226     0.00344     0.00076     0.00859     0.00340     0.00542
  
  S  H  14   0.12498    -0.05557     0.12196    -0.07405    -0.14918     0.12932
  
  S  H  15   0.06065    -0.17295    -0.06763    -0.16622    -0.04289    -0.16923
  
  S  H  16   0.19485     0.07821    -0.21284     0.03766     0.10563    -0.11040
  
  S  H  17   0.18434     0.06238    -0.19205    -0.07959     0.09951    -0.08561
  
  S  H  18   0.03518    -0.15234    -0.11472     0.15060    -0.02493    -0.21055
  
  S  H  19   0.12947    -0.06912     0.08994     0.10767    -0.15270     0.13298
  
  S  H  20  -0.14965    -0.06414     0.11407    -0.09175     0.18347    -0.13115
  
  S  C  21  -0.17137     0.17636    -0.08938    -0.15839    -0.11323    -0.04049
 PX  C  21  -0.06877     0.00483    -0.15465     0.12551    -0.20027    -0.03093
 PY  C  21   0.18205     0.03675     0.14618     0.14236    -0.02861    -0.15938
 PZ  C  21  -0.00019     0.00157     0.00613    -0.01353     0.00863    -0.00430
  
  S  C  22   0.04132    -0.12488    -0.02493     0.17390     0.04192     0.01180
 PX  C  22  -0.08555    -0.13653    -0.17996     0.08550    -0.00315     0.26512
 PY  C  22   0.09117    -0.17863     0.11326    -0.03430     0.25773     0.05131
 PZ  C  22   0.00738     0.01926     0.02185    -0.01774    -0.00237    -0.04447
  
  S  C  23  -0.00591    -0.12816     0.02765    -0.17463     0.06207    -0.00373
 PX  C  23   0.05070    -0.22423     0.00746    -0.00510     0.23364     0.17762
 PY  C  23  -0.14472    -0.02603    -0.17339    -0.15690    -0.11496     0.18911
 PZ  C  23  -0.00333     0.02005     0.00044     0.00007    -0.01997    -0.02193
  
  S  C  24  -0.16037     0.16316    -0.13114     0.10107    -0.14428    -0.00894
 PX  C  24   0.06588     0.03780     0.10387    -0.16549    -0.10986    -0.17472
 PY  C  24  -0.18731    -0.01882    -0.19375    -0.11460    -0.15809     0.07788
 PZ  C  24  -0.00430     0.00033    -0.00609    -0.00053    -0.00466     0.00067
  
  S  H  25  -0.21070     0.06767    -0.17641    -0.12099    -0.10127     0.06595
  
  S  H  26  -0.03512    -0.14687    -0.13867     0.15570     0.00864     0.20357
  
  S  H  27  -0.06209    -0.15655    -0.08051    -0.18425     0.05220     0.18946
  
  S  H  28  -0.21084     0.05801    -0.20971     0.04432    -0.11722     0.10488
  
  S  C  29   0.06614    -0.10575     0.01909    -0.07883     0.07205     0.14280
 PX  C  29  -0.10710     0.15761     0.08324    -0.16445     0.11666    -0.05516
 PY  C  29   0.26786     0.09712     0.15097    -0.02173    -0.07207     0.03720
 PZ  C  29  -0.00112    -0.00080     0.00018    -0.00275     0.00302     0.00055
  
  S  C  30   0.17641    -0.08661     0.01678     0.10233     0.05115     0.14240
 PX  C  30   0.11947     0.16101     0.14087     0.11653    -0.00317    -0.00808
 PY  C  30  -0.18743     0.07817    -0.04659     0.12820     0.11778    -0.06471
 PZ  C  30   0.00001    -0.00614    -0.00410     0.00162     0.00497     0.00485




    ROOT NO.   19          20          21          22          23          24

           -18.47203   -17.23226   -16.88808   -16.57925   -16.26510   -15.13305
  
  
  S  C   1  -0.16123     0.00325     0.00649    -0.12620    -0.00561     0.03416
 PX  C   1   0.07491    -0.20001    -0.05302    -0.03816    -0.19076     0.29041
 PY  C   1   0.14453     0.12188     0.09832     0.07249    -0.19768     0.03868
 PZ  C   1   0.00417    -0.01959    -0.00895    -0.00554    -0.02016     0.03727
  
  S  C   2   0.15667    -0.00744     0.02685     0.06951    -0.02288     0.04230
 PX  C   2   0.10794     0.21008     0.07559     0.12680     0.17018    -0.27121
 PY  C   2   0.00042     0.05645     0.11921    -0.25791     0.09196     0.23604
 PZ  C   2   0.00361     0.00379    -0.00167    -0.00090    -0.00037     0.02574
  
  S  C   3  -0.03593    -0.04840     0.06334    -0.20483     0.12733     0.00405
 PX  C   3  -0.19108     0.01612     0.02692    -0.06801    -0.20733    -0.12066
 PY  C   3  -0.05131    -0.22678    -0.15468     0.05997     0.00391    -0.00980
 PZ  C   3  -0.00142     0.00336    -0.00991     0.00431    -0.01797     0.04561
  
  S  C   4   0.03899    -0.00205    -0.10218     0.20837     0.04530     0.01288
 PX  C   4   0.14331    -0.20533    -0.08808    -0.06948    -0.06531     0.16104
 PY  C   4   0.07710     0.13485     0.03942     0.09229    -0.20578     0.05845
 PZ  C   4   0.02064    -0.00744    -0.00185     0.00304    -0.02147     0.04899
  
  S  C   5  -0.17782     0.03191    -0.01031    -0.06322     0.03176    -0.08673
 PX  C   5  -0.03668     0.19624     0.04391     0.20894     0.06734    -0.11267
 PY  C   5  -0.09114     0.04769     0.09254    -0.18110     0.19211     0.21224
 PZ  C   5   0.00867     0.01569     0.00635     0.01942    -0.01054     0.01180
  
  S  C   6   0.16507     0.00554     0.00141     0.11843    -0.08637    -0.01499
 PX  C   6  -0.17117     0.05483    -0.00049    -0.07751    -0.19815    -0.22495
 PY  C   6  -0.00571    -0.19600    -0.12386    -0.02065    -0.03655    -0.02890
 PZ  C   6  -0.01133     0.00403    -0.00160    -0.00578    -0.03446    -0.01411
  
  S  C   7  -0.09265    -0.03841    -0.02852     0.04693    -0.09104     0.04391
 PX  C   7   0.16894    -0.02602    -0.08589     0.20429     0.10198     0.12973
 PY  C   7   0.09896    -0.14573     0.19675    -0.13059     0.06485    -0.11710
 PZ  C   7  -0.00150     0.00875    -0.02730     0.01900    -0.01192     0.05419
  
  S  C   8   0.11078    -0.04137    -0.01147    -0.05788    -0.07850    -0.01759
 PX  C   8  -0.16383     0.03348    -0.15917     0.04958     0.12703    -0.13610
 PY  C   8  -0.03814    -0.06639     0.15659    -0.23477     0.11564    -0.10601
 PZ  C   8   0.00336    -0.01459     0.01321    -0.02387     0.00057     0.02410
  
  S  C   9  -0.14199     0.17679    -0.12565     0.05990     0.08264     0.05798
 PX  C   9   0.02991     0.07365     0.07791     0.01012    -0.05643     0.18021
 PY  C   9  -0.05705    -0.20343    -0.14529     0.02772     0.11525     0.05718
 PZ  C   9  -0.00684    -0.01445    -0.01652    -0.00142     0.00408     0.03864
  
  S  C  10   0.14033     0.04939     0.24256    -0.02553     0.05866    -0.03724
 PX  C  10   0.07013    -0.08890     0.00311    -0.04840     0.08617    -0.04803
 PY  C  10  -0.08257     0.25569     0.01754    -0.00828    -0.08930     0.04176
 PZ  C  10  -0.00088     0.00309    -0.02030     0.00426    -0.00747     0.04595
  
  S  C  11  -0.10592    -0.00567    -0.04032    -0.06357    -0.05789    -0.05978
 PX  C  11  -0.20549     0.08131    -0.11884     0.03742    -0.15134     0.04854
 PY  C  11  -0.07777    -0.11224     0.28230     0.08770    -0.15322    -0.04682
 PZ  C  11  -0.00539     0.00761    -0.02165    -0.00168    -0.01525     0.03218
  
  S  H  12  -0.05722     0.10741    -0.29568    -0.08139     0.03525     0.03258
  
  S  C  13   0.06824    -0.06018     0.02082     0.02420    -0.08366     0.02289
 PX  C  13   0.16191     0.12449    -0.15020    -0.16412    -0.15179     0.01390
 PY  C  13   0.06902    -0.05553     0.30122     0.04388    -0.06954    -0.20030
 PZ  C  13  -0.00081    -0.00599     0.00671    -0.00063    -0.00509     0.01350
  
  S  H  14  -0.05057     0.08207    -0.21390     0.21257    -0.05787     0.16516
  
  S  H  15  -0.20659     0.02149    -0.03493    -0.09414     0.23419    -0.16383
  
  S  H  16   0.11678     0.04059    -0.05149     0.28730    -0.01821    -0.27684
  
  S  H  17  -0.13390    -0.02952     0.05528    -0.26305     0.13437     0.17341
  
  S  H  18   0.21950    -0.05044    -0.00260     0.12383     0.12571     0.19404
  
  S  H  19   0.09477    -0.08730     0.18755    -0.23049    -0.01610    -0.01847
  
  S  H  20   0.02621    -0.12521     0.30158     0.10655    -0.04139    -0.14448
  
  S  C  21   0.17101     0.03348    -0.01568    -0.07216    -0.01052    -0.00237
 PX  C  21  -0.01772    -0.12464    -0.16741    -0.14110    -0.15639    -0.19109
 PY  C  21  -0.12757    -0.16647     0.07015     0.08805    -0.09545     0.04188
 PZ  C  21   0.01775     0.02400    -0.00482    -0.01773    -0.01702     0.01659
  
  S  C  22  -0.15029    -0.01777     0.06144     0.07241    -0.03408     0.06426
 PX  C  22  -0.10665    -0.06967    -0.02736     0.11866     0.24150    -0.01397
 PY  C  22   0.01042     0.25451     0.09276     0.00084     0.02856     0.11503
 PZ  C  22   0.02934     0.01989    -0.00303    -0.03826    -0.06496     0.00744
  
  S  C  23   0.14827     0.04415    -0.04506    -0.08724    -0.05537    -0.05338
 PX  C  23   0.11624     0.19804     0.07686    -0.01694     0.15718     0.07089
 PY  C  23   0.17090    -0.15423    -0.11513    -0.01897     0.18975    -0.13435
 PZ  C  23  -0.00434    -0.01331    -0.00609    -0.00755    -0.03852     0.00777
  
  S  C  24  -0.15579    -0.01538     0.01388     0.05434     0.00929     0.04755
 PX  C  24   0.04953    -0.16534    -0.11086    -0.05375    -0.18610    -0.11126
 PY  C  24  -0.01775    -0.20026     0.09115     0.14749    -0.00419     0.15998
 PZ  C  24   0.00092    -0.00547     0.00224     0.00049    -0.01763     0.02216
  
  S  H  25   0.16335     0.09736    -0.13409    -0.16272     0.00033    -0.11418
  
  S  H  26  -0.16730    -0.07998     0.00441     0.14015     0.18981     0.01213
  
  S  H  27   0.23779     0.00070    -0.06988    -0.06508     0.18283    -0.09899
  
  S  H  28  -0.11205    -0.07474     0.14016     0.16187     0.08009     0.19380
  
  S  C  29  -0.05830    -0.10951     0.13507     0.14444     0.05769     0.03242
 PX  C  29   0.12727     0.19995     0.08173     0.03509     0.13027     0.16696
 PY  C  29   0.14460    -0.12664    -0.12749    -0.00195     0.23407    -0.03647
 PZ  C  29   0.00682     0.01253    -0.01659    -0.01145    -0.01662     0.02765
  
  S  C  30   0.08201     0.03962    -0.18912    -0.11145     0.07714    -0.08862
 PX  C  30  -0.14366    -0.04403     0.07444     0.09547     0.21410    -0.07593
 PY  C  30  -0.05787     0.29070     0.04327    -0.07772    -0.04512     0.01371
 PZ  C  30   0.01038     0.00805    -0.01321    -0.01351    -0.02124     0.02383




    ROOT NO.   25          26          27          28          29          30

           -15.05486   -14.82073   -14.69559   -14.40184   -13.90986   -13.30908
  
  
  S  C   1   0.05554     0.01313     0.02949     0.01187    -0.05062     0.01809
 PX  C   1  -0.07096     0.04972     0.06895    -0.04781    -0.07606    -0.03731
 PY  C   1  -0.03267    -0.17163     0.21773     0.08300    -0.03695     0.11961
 PZ  C   1  -0.00718     0.02338    -0.05264     0.12377    -0.06809    -0.18564
  
  S  C   2  -0.04076    -0.04184     0.06642     0.03403     0.04796    -0.00944
 PX  C   2   0.03755    -0.07811    -0.02494     0.05209     0.12230     0.04045
 PY  C   2   0.11566     0.07353     0.16549     0.05096     0.07475    -0.05428
 PZ  C   2  -0.00036     0.02406    -0.06169     0.16677    -0.05816    -0.19042
  
  S  C   3   0.00576    -0.00025    -0.04456    -0.01228    -0.03313     0.00861
 PX  C   3  -0.05570    -0.15157    -0.02431    -0.02088    -0.23115     0.05265
 PY  C   3  -0.08270     0.07019    -0.16935    -0.08756    -0.03624     0.01787
 PZ  C   3  -0.00688     0.03505    -0.10890     0.28896    -0.08926    -0.22128
  
  S  C   4  -0.02194     0.06262    -0.02386    -0.03505    -0.00054     0.00382
 PX  C   4   0.07175     0.08584     0.01612    -0.04354    -0.16575     0.13445
 PY  C   4   0.05375    -0.08507     0.18215     0.05418    -0.16807     0.07458
 PZ  C   4  -0.02493     0.02465    -0.11819     0.28413    -0.10228    -0.23232
  
  S  C   5   0.05552    -0.00843    -0.00859     0.03924     0.01195    -0.01549
 PX  C   5  -0.10266    -0.06566     0.00844     0.00872     0.16761    -0.10430
 PY  C   5   0.04955    -0.00904     0.25697     0.09674     0.15056     0.03855
 PZ  C   5  -0.02555     0.00470    -0.07643     0.18495    -0.06704    -0.22125
  
  S  C   6  -0.05311    -0.04263    -0.00352    -0.01700    -0.04207     0.02883
 PX  C   6   0.10248    -0.09172    -0.03968    -0.00975    -0.17534     0.16517
 PY  C   6   0.00691     0.12914    -0.22908    -0.10287    -0.10092    -0.07314
 PZ  C   6   0.00344     0.00030    -0.06511     0.13692    -0.09149    -0.17161
  
  S  C   7  -0.04404     0.02921    -0.00376    -0.02450     0.04174    -0.02345
 PX  C   7   0.02194     0.14916     0.04544     0.00269     0.26395    -0.05001
 PY  C   7  -0.23794    -0.25938     0.00320     0.06051     0.15094    -0.00012
 PZ  C   7   0.00757     0.05301    -0.10265     0.27277    -0.04256    -0.10191
  
  S  C   8   0.05198     0.02278    -0.03506    -0.01503    -0.00755     0.01594
 PX  C   8   0.19500     0.10267     0.05747     0.05407     0.20665    -0.00833
 PY  C   8  -0.16167    -0.04898    -0.20449    -0.08991     0.15190    -0.10600
 PZ  C   8  -0.04691     0.01121    -0.13571     0.24258    -0.03947    -0.11248
  
  S  C   9   0.01265    -0.01436     0.01866    -0.01453     0.00499    -0.02199
 PX  C   9  -0.20954    -0.11387    -0.05466    -0.04951    -0.20441    -0.00980
 PY  C   9  -0.16263    -0.03585    -0.07342    -0.08030    -0.02534     0.10144
 PZ  C   9  -0.03894     0.01629    -0.13446     0.29011    -0.00813     0.04447
  
  S  C  10  -0.03973     0.01291    -0.00141     0.00559    -0.00814    -0.01524
 PX  C  10   0.13701     0.19392    -0.09115    -0.06911    -0.23182     0.13071
 PY  C  10   0.14091     0.06379     0.01183    -0.00269    -0.19763    -0.04827
 PZ  C  10  -0.01227     0.03278    -0.12583     0.31039    -0.00641     0.03482
  
  S  C  11   0.04564    -0.02223    -0.00094     0.00325    -0.03889    -0.00134
 PX  C  11  -0.10918    -0.17498     0.08605     0.04267     0.22500    -0.13971
 PY  C  11  -0.01335     0.31109    -0.04497    -0.04053     0.13567    -0.03472
 PZ  C  11  -0.01246     0.01065    -0.09200     0.22754     0.04710     0.15646
  
  S  H  12   0.00256    -0.30890     0.06529     0.05190    -0.05217    -0.01598
  
  S  C  13  -0.02772    -0.03411     0.03787     0.03712     0.00006     0.02321
 PX  C  13   0.09169    -0.07494    -0.08463    -0.03091     0.22960    -0.06799
 PY  C  13   0.21580     0.15019     0.16660     0.09844     0.00321    -0.05078
 PZ  C  13  -0.00432     0.01846    -0.08673     0.21825     0.03380     0.15909
  
  S  H  14   0.17474     0.26923     0.01050    -0.03616     0.01196    -0.04053
  
  S  H  15   0.09068     0.10681    -0.17873    -0.03610     0.05416    -0.05587
  
  S  H  16  -0.09110    -0.10594    -0.10856    -0.00719     0.02038     0.06274
  
  S  H  17   0.10451     0.01218     0.20224     0.07344     0.07051     0.09064
  
  S  H  18  -0.11985     0.06738     0.02782    -0.01430     0.14786    -0.13839
  
  S  H  19  -0.18383    -0.07574    -0.19303    -0.07622     0.01104    -0.07828
  
  S  H  20   0.12596     0.12576     0.17319     0.09808    -0.09151    -0.00480
  
  S  C  21   0.08599     0.00661    -0.06535    -0.02988    -0.02152     0.00052
 PX  C  21   0.02327     0.11708     0.06189     0.03581     0.12928    -0.01903
 PY  C  21   0.30064    -0.26561    -0.05446     0.01371     0.07039    -0.11951
 PZ  C  21  -0.00243     0.02738    -0.07765     0.10888     0.06854     0.23674
  
  S  C  22   0.00423    -0.04194    -0.04071    -0.01294     0.05076     0.00553
 PX  C  22  -0.24840     0.02405     0.18859     0.10148    -0.13271     0.07686
 PY  C  22  -0.19366     0.16719    -0.10797    -0.07992    -0.01713     0.12901
 PZ  C  22   0.05816     0.01504    -0.09829     0.06200     0.10137     0.19864
  
  S  C  23   0.00972     0.04931     0.01163     0.00763     0.03801    -0.00125
 PX  C  23   0.18674    -0.01971    -0.22051    -0.08421    -0.06179     0.04143
 PY  C  23   0.15476    -0.12735     0.12696     0.08869    -0.10946    -0.09003
 PZ  C  23   0.00526     0.00610    -0.04756     0.08991     0.08580     0.21100
  
  S  C  24  -0.10875     0.03030    -0.00664    -0.01213    -0.02275     0.02409
 PX  C  24  -0.14088     0.03055     0.22051     0.09467     0.09392    -0.02960
 PY  C  24   0.17341    -0.20380    -0.13879    -0.04976     0.11094     0.05833
 PZ  C  24   0.01467    -0.00239    -0.07331     0.12079     0.08137     0.24256
  
  S  H  25  -0.18984     0.26061     0.03920    -0.00775    -0.01430     0.09715
  
  S  H  26  -0.21768    -0.00988     0.17175     0.07708    -0.11335     0.02845
  
  S  H  27   0.21049    -0.08258     0.00651     0.02699    -0.10937    -0.07386
  
  S  H  28   0.15245    -0.14715    -0.21415    -0.08509     0.02505     0.08095
  
  S  C  29   0.01441    -0.01193     0.01877     0.02407     0.04400     0.00526
 PX  C  29  -0.00208    -0.11881    -0.08383    -0.04845    -0.15040     0.01099
 PY  C  29   0.07297    -0.13260     0.05906     0.05170    -0.15657     0.10987
 PZ  C  29  -0.00906     0.01579    -0.10272     0.21779     0.08160     0.28813
  
  S  C  30  -0.02093    -0.00843     0.05022     0.01085     0.01586    -0.02954
 PX  C  30  -0.06697     0.10404     0.09572     0.05820    -0.22979     0.06402
 PY  C  30  -0.09504     0.13196    -0.05274    -0.05182    -0.05335    -0.08154
 PZ  C  30  -0.00067     0.00824    -0.10182     0.21400     0.09068     0.28704




    ROOT NO.   31          32          33          34          35          36

           -13.19384   -12.92567   -12.18803   -11.68655   -11.59445   -11.55014
  
  
  S  C   1  -0.01131     0.02152     0.00240    -0.00058    -0.00475     0.02058
 PX  C   1   0.22537    -0.09250    -0.10017    -0.04022     0.08584     0.07291
 PY  C   1   0.07283     0.24930     0.13891    -0.12900    -0.06765     0.10119
 PZ  C   1  -0.03302     0.08962    -0.10808     0.14706    -0.19197     0.16812
  
  S  C   2   0.00855     0.02608    -0.01614     0.05281     0.01081    -0.03378
 PX  C   2  -0.22003     0.07529     0.08475     0.07389    -0.05413    -0.12222
 PY  C   2  -0.08944    -0.11604    -0.12366     0.20664     0.07565    -0.15125
 PZ  C   2  -0.04813     0.10037    -0.08077     0.10105    -0.12674     0.10873
  
  S  C   3  -0.02374    -0.01166    -0.00571    -0.01169     0.01108     0.02348
 PX  C   3   0.19711     0.00904    -0.13916    -0.02050     0.15337     0.15937
 PY  C   3   0.07940     0.06317     0.17580    -0.27135    -0.14709     0.14128
 PZ  C   3  -0.03789     0.12106    -0.03376    -0.01361     0.01030     0.01492
  
  S  C   4   0.04823    -0.00455     0.00963     0.00245    -0.00098     0.00515
 PX  C   4  -0.19467     0.08974     0.19570     0.01507    -0.14083    -0.11763
 PY  C   4  -0.02960     0.00785    -0.13432     0.27660     0.14427    -0.13074
 PZ  C   4  -0.05438     0.13213    -0.03027     0.02448    -0.06498     0.03785
  
  S  C   5  -0.02161     0.03092    -0.03231     0.01891     0.01712     0.03542
 PX  C   5   0.23555    -0.08778    -0.16600    -0.03833     0.13493     0.10821
 PY  C   5   0.08587     0.18875     0.10606    -0.13695    -0.05110     0.10838
 PZ  C   5  -0.03321     0.12044    -0.09331     0.11565    -0.18488     0.15882
  
  S  C   6   0.02002     0.00419     0.01605    -0.00844     0.00773    -0.01758
 PX  C   6  -0.21361     0.09951     0.13818     0.00889    -0.03994    -0.10019
 PY  C   6  -0.09517    -0.23605    -0.11971     0.15182     0.05376    -0.12816
 PZ  C   6  -0.08013     0.12764    -0.08003     0.16022    -0.23982     0.17063
  
  S  C   7   0.06492     0.00690     0.00143     0.03047     0.01123    -0.00446
 PX  C   7  -0.15441     0.01291     0.13731     0.04898    -0.14616    -0.16361
 PY  C   7   0.00609     0.12432    -0.03242     0.17262     0.07992    -0.09259
 PZ  C   7  -0.01460     0.04615     0.04754    -0.12165     0.14364    -0.10483
  
  S  C   8  -0.08369    -0.00215    -0.01392     0.04750     0.05726     0.00426
 PX  C   8   0.04331     0.11782    -0.07733    -0.02491     0.16395     0.19696
 PY  C   8   0.06936    -0.12079     0.04105    -0.22574    -0.11086     0.09680
 PZ  C   8  -0.00642     0.04143     0.04594    -0.09767     0.06095    -0.05233
  
  S  C   9   0.06547    -0.00314    -0.00060     0.01553    -0.02477     0.00211
 PX  C   9   0.01037    -0.11865     0.09140    -0.00459    -0.19821    -0.20642
 PY  C   9   0.07073     0.25113     0.07381     0.24938     0.10932     0.00858
 PZ  C   9   0.03271    -0.00296     0.09936    -0.11270     0.21641    -0.13599
  
  S  C  10  -0.04322    -0.05537     0.00573     0.00620    -0.01489    -0.00736
 PX  C  10   0.00974     0.10569    -0.00293     0.00861     0.19258     0.25716
 PY  C  10   0.01832    -0.23313    -0.03593    -0.24198    -0.13176     0.02584
 PZ  C  10   0.02465    -0.01505     0.09654    -0.15200     0.25265    -0.17578
  
  S  C  11   0.07569     0.01871     0.01504     0.02211     0.04103     0.03983
 PX  C  11   0.04141    -0.07848     0.02661     0.01690    -0.17744    -0.22689
 PY  C  11   0.07981     0.08277     0.17484     0.13693     0.04779     0.01463
 PZ  C  11   0.04748    -0.08696     0.05793    -0.05366     0.11059    -0.09946
  
  S  H  12  -0.01908    -0.09230    -0.14652    -0.12715    -0.10483    -0.09460
  
  S  C  13  -0.07565    -0.01865     0.03114     0.03580     0.04239     0.01238
 PX  C  13  -0.19069    -0.06135     0.01512    -0.05812     0.12835     0.20741
 PY  C  13  -0.02490    -0.13456    -0.12769    -0.17343    -0.05594     0.01963
 PZ  C  13   0.04238    -0.08964     0.04649    -0.04077     0.08583    -0.03482
  
  S  H  14  -0.04932    -0.09229     0.09980    -0.14412    -0.14398    -0.01350
  
  S  H  15  -0.19175    -0.14269    -0.04777     0.12516     0.01253    -0.13343
  
  S  H  16  -0.01960     0.14316     0.15144    -0.13965    -0.09600     0.06029
  
  S  H  17  -0.03972     0.20175     0.17472    -0.12500    -0.09632     0.04848
  
  S  H  18   0.21966    -0.11911    -0.13299    -0.01978     0.06516     0.07688
  
  S  H  19  -0.01116    -0.15010     0.07683    -0.17887    -0.16465    -0.02842
  
  S  H  20   0.01558    -0.09415    -0.11516    -0.12705    -0.09625    -0.07347
  
  S  C  21   0.01952     0.01155     0.02683     0.00667     0.03369     0.04235
 PX  C  21   0.20510     0.12775    -0.10055    -0.00853    -0.11041    -0.21388
 PY  C  21   0.09631    -0.11327     0.18605     0.08998    -0.00181     0.02799
 PZ  C  21   0.05786    -0.08136    -0.06061     0.10206    -0.16288     0.08149
  
  S  C  22  -0.02531     0.01146    -0.01270     0.00225    -0.00656    -0.00533
 PX  C  22  -0.14155    -0.15554     0.02700     0.02689    -0.01144     0.13938
 PY  C  22  -0.12824     0.14902    -0.19977    -0.09603     0.02028    -0.01597
 PZ  C  22   0.09475    -0.03878    -0.08623     0.13435    -0.23533     0.08868
  
  S  C  23  -0.00268     0.00158    -0.01766    -0.00840    -0.00355     0.01481
 PX  C  23   0.22595     0.13438    -0.02987     0.03449    -0.06809    -0.11798
 PY  C  23   0.14802    -0.16126     0.19719     0.09638    -0.02124     0.03556
 PZ  C  23   0.03086    -0.09708    -0.07365     0.14085    -0.23155     0.16512
  
  S  C  24  -0.00048     0.01338     0.03006     0.03625    -0.00703    -0.00842
 PX  C  24  -0.23307    -0.12842    -0.01626    -0.05416     0.05765     0.12695
 PY  C  24  -0.17156     0.10032    -0.22876    -0.13468     0.03385    -0.00371
 PZ  C  24   0.03658    -0.11369    -0.05673     0.11644    -0.17845     0.14796
  
  S  H  25   0.02390     0.16060    -0.21012    -0.08803    -0.04488    -0.11789
  
  S  H  26  -0.15696    -0.14215     0.04717     0.00444     0.03146     0.11747
  
  S  H  27   0.23482    -0.06031     0.15626     0.08738    -0.03650    -0.04116
  
  S  H  28  -0.01650     0.14839    -0.17715    -0.07340    -0.01584    -0.07831
  
  S  C  29  -0.03519    -0.01379     0.01096     0.01984    -0.01053    -0.00802
 PX  C  29  -0.17674    -0.13062     0.11983     0.01645     0.12298     0.23340
 PY  C  29  -0.04916     0.01960    -0.27534    -0.16852    -0.04424    -0.04093
 PZ  C  29   0.06549    -0.14439     0.01337     0.05075    -0.03033     0.02368
  
  S  C  30   0.03693     0.01844    -0.02715    -0.01279    -0.00438    -0.00939
 PX  C  30   0.24555     0.02927    -0.02932     0.02838    -0.14911    -0.20980
 PY  C  30   0.12820    -0.05846     0.30540     0.17466     0.04154     0.06763
 PZ  C  30   0.05020    -0.15677     0.01383     0.06538    -0.04307     0.08473




    ROOT NO.   37          38          39          40          41          42

           -10.65194    -9.85586    -9.59169    -8.34120    -7.99021    -6.76858
  
  
  S  C   1  -0.00376    -0.01193     0.01056     0.00873     0.01113    -0.00600
 PX  C   1   0.01713     0.01546    -0.03274    -0.02446    -0.01424     0.01576
 PY  C   1  -0.01042    -0.01053     0.01148     0.00651     0.00585    -0.00277
 PZ  C   1  -0.14089    -0.24857     0.31780     0.25740     0.22137    -0.17818
  
  S  C   2  -0.00285     0.00161     0.00759     0.00628     0.00022    -0.00305
 PX  C   2   0.00229     0.00279    -0.00022    -0.00304     0.00275     0.00182
 PY  C   2   0.01985     0.00503    -0.01315    -0.00848     0.00423     0.00451
 PZ  C   2  -0.23711    -0.01877     0.37594     0.35694    -0.05424    -0.21440
  
  S  C   3  -0.00862     0.00123    -0.00210    -0.00836    -0.00174     0.00671
 PX  C   3  -0.00218    -0.00232    -0.00688     0.00151     0.01050    -0.00587
 PY  C   3  -0.01434    -0.00895     0.00663     0.00010    -0.00793     0.00087
 PZ  C   3  -0.24017     0.31169     0.11682     0.01593    -0.35925     0.14083
  
  S  C   4  -0.00553    -0.00897     0.01486     0.00708     0.01417     0.00030
 PX  C   4  -0.00774    -0.01338     0.01516    -0.00592     0.01329     0.01123
 PY  C   4   0.00715     0.00720     0.00335     0.00188     0.01207     0.00202
 PZ  C   4   0.21505     0.16377    -0.29767    -0.04929    -0.33872    -0.14346
  
  S  C   5   0.02113    -0.01409    -0.03114    -0.03055     0.00208     0.01767
 PX  C   5  -0.01356     0.01729     0.01677     0.02931    -0.00419    -0.01810
 PY  C   5   0.00336    -0.00505    -0.00367     0.00150    -0.00161    -0.00313
 PZ  C   5   0.18522    -0.20138    -0.27213    -0.33601     0.04957     0.20168
  
  S  C   6  -0.00913     0.02279     0.00828     0.01567    -0.01879    -0.01261
 PX  C   6  -0.01436     0.04536     0.01198     0.02656    -0.03626    -0.02173
 PY  C   6   0.00318     0.00821     0.00071     0.00243    -0.00112    -0.00297
 PZ  C   6   0.06312    -0.34680    -0.04260    -0.20823     0.29180     0.18635
  
  S  C   7   0.00596    -0.00210    -0.00149     0.00129    -0.00189    -0.00662
 PX  C   7   0.01888    -0.01198     0.00242     0.00507    -0.00188    -0.00889
 PY  C   7  -0.02941     0.02285     0.00857    -0.01705     0.00054     0.01815
 PZ  C   7  -0.34053     0.25422     0.10029    -0.21092     0.03297     0.34467
  
  S  C   8   0.00954     0.00550    -0.00891     0.00857     0.00238    -0.00975
 PX  C   8   0.01613     0.00224    -0.01834     0.01071     0.00296    -0.00900
 PY  C   8  -0.05145    -0.02074     0.03066    -0.02084     0.00502     0.03762
 PZ  C   8   0.36407     0.12393    -0.22368     0.23579    -0.01679    -0.36706
  
  S  C   9  -0.01012     0.00214    -0.00544    -0.01692    -0.01943    -0.00911
 PX  C   9  -0.00840    -0.00007     0.01434    -0.00587     0.00120    -0.00343
 PY  C   9  -0.02585     0.01577    -0.00569    -0.02313    -0.02785    -0.00775
 PZ  C   9   0.33348    -0.00481     0.03837     0.26100     0.33641    -0.00874
  
  S  C  10  -0.00156     0.00203     0.00258     0.00442    -0.00638     0.00444
 PX  C  10  -0.00462     0.00394    -0.01520     0.00139    -0.00275    -0.00598
 PY  C  10   0.00968    -0.01315     0.00252     0.00871     0.00762    -0.00012
 PZ  C  10  -0.22841    -0.00711    -0.00919    -0.18219     0.39619    -0.00840
  
  S  C  11   0.00060     0.00196     0.00037    -0.00133    -0.00020     0.00099
 PX  C  11   0.01811     0.00537     0.01916     0.00462    -0.00733     0.01514
 PY  C  11  -0.00206    -0.00113     0.00025    -0.00484    -0.00264    -0.00397
 PZ  C  11  -0.29249    -0.29838    -0.15598    -0.17997     0.03562    -0.38320
  
  S  H  12   0.00565    -0.00507     0.00585     0.00227     0.00080     0.00134
  
  S  C  13   0.03417    -0.01077     0.02761     0.02019    -0.00244     0.04433
 PX  C  13   0.00041    -0.00476    -0.00584     0.00573    -0.00357     0.00808
 PY  C  13  -0.01139    -0.00383    -0.01560    -0.00515     0.00188    -0.01663
 PZ  C  13   0.34762    -0.12666     0.29173     0.16472    -0.02127     0.38889
  
  S  H  14   0.01369    -0.01007     0.00183     0.00467     0.00141     0.00270
  
  S  H  15   0.00640     0.00941    -0.00593    -0.00455    -0.00583     0.00286
  
  S  H  16  -0.01157    -0.00246     0.00571     0.00040    -0.00268     0.00057
  
  S  H  17  -0.00455     0.00186     0.00863     0.01411    -0.00525    -0.01145
  
  S  H  18   0.00691    -0.01289    -0.00697    -0.00839     0.01194     0.00692
  
  S  H  19  -0.02211    -0.00814     0.01671    -0.00433     0.00279     0.01013
  
  S  H  20  -0.00855    -0.00670    -0.00910    -0.00600     0.00381    -0.01971
  
  S  C  21  -0.00361    -0.00412    -0.00478     0.00314    -0.00112     0.00083
 PX  C  21   0.01343    -0.01984     0.01656    -0.00495    -0.01678     0.00149
 PY  C  21  -0.01464    -0.00003    -0.01960     0.01682    -0.00412     0.00930
 PZ  C  21  -0.19562    -0.00231    -0.35603     0.36860    -0.02502     0.25126
  
  S  C  22  -0.00517     0.00381    -0.01156     0.01317     0.00449     0.01015
 PX  C  22  -0.03429     0.06780    -0.06722     0.05817     0.05075     0.03775
 PY  C  22   0.00791    -0.01027     0.00809    -0.00361    -0.00272     0.00031
 PZ  C  22  -0.11312     0.26780    -0.26984     0.27207     0.22825     0.19710
  
  S  C  23   0.00640     0.02095     0.00901    -0.01724     0.01444    -0.01848
 PX  C  23   0.01728     0.01800     0.02806    -0.02930     0.00867    -0.02170
 PY  C  23  -0.00886     0.01826    -0.01017     0.00544     0.00709     0.00211
 PZ  C  23   0.03622     0.41124     0.05206    -0.18108     0.26043    -0.21078
  
  S  C  24  -0.00006     0.00343     0.00274    -0.00003    -0.00387     0.00576
 PX  C  24  -0.00976     0.00531    -0.01735     0.00986     0.00540     0.00214
 PY  C  24  -0.00368    -0.02039    -0.01409     0.01559     0.00218     0.00551
 PZ  C  24   0.14129     0.25212     0.26883    -0.34521     0.01098    -0.23435
  
  S  H  25   0.01757    -0.01444     0.02356    -0.01529    -0.00832    -0.00582
  
  S  H  26  -0.01393     0.01634    -0.01822     0.00891     0.00729     0.00166
  
  S  H  27   0.00081    -0.00503     0.00538    -0.00002    -0.01066     0.00575
  
  S  H  28   0.00707    -0.01609     0.00882    -0.00417    -0.00621    -0.00246
  
  S  C  29  -0.00770    -0.00153    -0.00928     0.00475    -0.00443     0.00152
 PX  C  29  -0.01686     0.02036    -0.02276     0.01024     0.01760     0.00013
 PY  C  29   0.00644    -0.00843     0.00584    -0.00128    -0.00350     0.00233
 PZ  C  29  -0.20483    -0.35075    -0.16655     0.02172    -0.31946    -0.13852
  
  S  C  30  -0.01070     0.01751    -0.02013     0.00430     0.02511    -0.01689
 PX  C  30   0.01900    -0.00889     0.03120    -0.00886    -0.01518     0.01361
 PY  C  30  -0.00899     0.01461    -0.00741     0.00159     0.00696    -0.00268
 PZ  C  30   0.18809    -0.16001     0.29783    -0.10793    -0.33390     0.15432




    ROOT NO.   43          44          45          46          47          48

            -1.04313     0.10314     0.33142     1.19822     1.29870     1.83329
  
  
  S  C   1  -0.01247     0.00354    -0.02502     0.02940     0.00548    -0.02245
 PX  C   1   0.01353    -0.01368     0.01835    -0.01814    -0.01331     0.00342
 PY  C   1  -0.00449    -0.00248    -0.00549     0.00218    -0.00360    -0.00011
 PZ  C   1  -0.18390     0.19025    -0.29218     0.33120     0.20349    -0.14397
  
  S  C   2   0.00306    -0.00300     0.01921    -0.03153    -0.00476     0.03135
 PX  C   2  -0.01080     0.00079    -0.01483     0.01381     0.00199    -0.00648
 PY  C   2  -0.00824    -0.00346    -0.00761     0.00474    -0.00243    -0.00120
 PZ  C   2   0.20903     0.07548     0.36819    -0.35181     0.03624     0.23994
  
  S  C   3   0.00509     0.00455    -0.00441     0.01301     0.01142    -0.01169
 PX  C   3  -0.00647     0.00526    -0.00290    -0.00976     0.00615     0.01577
 PY  C   3   0.01204     0.00449     0.01035    -0.00320     0.00307     0.00388
 PZ  C   3   0.14394    -0.35535     0.00639     0.06958    -0.34018    -0.24616
  
  S  C   4  -0.00983    -0.01884    -0.00419    -0.00962    -0.02367    -0.00759
 PX  C   4   0.00421    -0.00923     0.02081    -0.02448     0.00547     0.01782
 PY  C   4  -0.00909    -0.01025    -0.00110    -0.00757    -0.00173     0.00189
 PZ  C   4   0.14786     0.32416    -0.09100     0.31655     0.12372    -0.23368
  
  S  C   5   0.01745     0.00599     0.03459    -0.02799     0.02968     0.03634
 PX  C   5  -0.01603    -0.00050    -0.03061     0.02447    -0.01203    -0.01348
 PY  C   5   0.00369     0.00645     0.00818    -0.00656     0.01154     0.00949
 PZ  C   5   0.19698     0.08148     0.33884    -0.21851     0.23729     0.18172
  
  S  C   6   0.01214     0.01780     0.01235    -0.00204     0.01502     0.00004
 PX  C   6   0.01866     0.02794     0.01724     0.00095     0.02824     0.00315
 PY  C   6  -0.00627     0.00236    -0.01555     0.01794    -0.00336    -0.01753
 PZ  C   6  -0.18293    -0.30246    -0.18461    -0.01502    -0.35818    -0.06057
  
  S  C   7   0.00284     0.00946     0.00766     0.00198    -0.01300    -0.01599
 PX  C   7   0.01015     0.00599     0.00857     0.00691    -0.00626    -0.01786
 PY  C   7  -0.01959     0.00406    -0.00909    -0.00207     0.01298     0.01634
 PZ  C   7  -0.32643    -0.05178    -0.20563    -0.06409     0.26006     0.34388
  
  S  C   8  -0.00559    -0.00353    -0.00313     0.00375     0.00353     0.01277
 PX  C   8  -0.00434    -0.01198    -0.00093    -0.00198    -0.00521     0.01029
 PY  C   8   0.03120    -0.00408     0.02038     0.01545    -0.00053    -0.03074
 PZ  C   8  -0.36008    -0.03381    -0.23213    -0.22436    -0.07667     0.37410
  
  S  C   9  -0.00832     0.03198    -0.00810    -0.00818    -0.00306    -0.02140
 PX  C   9  -0.00929     0.00319     0.00456    -0.00677    -0.00139    -0.00806
 PY  C   9  -0.01424     0.01154    -0.01737    -0.00869     0.00131     0.01317
 PZ  C   9  -0.00430    -0.31886     0.29104    -0.04483    -0.01928    -0.32418
  
  S  C  10   0.00440    -0.02615    -0.00847    -0.00063     0.00273     0.01070
 PX  C  10   0.00259     0.00028    -0.00782    -0.00690    -0.00286    -0.00184
 PY  C  10   0.00713    -0.00771     0.00717     0.00172    -0.00234    -0.00275
 PZ  C  10  -0.02266     0.40928     0.16906    -0.00320     0.02642    -0.25499
  
  S  C  11  -0.00715     0.00624     0.01057     0.01213     0.00420     0.00880
 PX  C  11  -0.01290    -0.00752     0.00853     0.00670     0.00917    -0.00327
 PY  C  11   0.00002    -0.00005     0.00520     0.01040    -0.00226     0.00786
 PZ  C  11   0.38829    -0.02167    -0.17061     0.11653    -0.30903     0.28787
  
  S  H  12   0.00297    -0.00212    -0.00217    -0.00416    -0.00512    -0.00326
  
  S  C  13   0.03914    -0.00244    -0.02083     0.03019     0.00523     0.05752
 PX  C  13   0.00105     0.01710    -0.00581    -0.00557    -0.00818    -0.00427
 PY  C  13  -0.01061     0.00989     0.00167    -0.00487    -0.00507    -0.00823
 PZ  C  13   0.39385    -0.02834    -0.16900     0.29611     0.08515     0.31730
  
  S  H  14  -0.00161    -0.00664    -0.00075    -0.00285     0.01162     0.01783
  
  S  H  15   0.00575    -0.00233     0.01244    -0.01540    -0.00512     0.01174
  
  S  H  16  -0.00156     0.00291    -0.01227     0.02190     0.00253    -0.02134
  
  S  H  17  -0.00822    -0.00107    -0.02228     0.02177    -0.01937    -0.02555
  
  S  H  18  -0.00918    -0.01094    -0.01113     0.00441    -0.01124    -0.00234
  
  S  H  19   0.00321    -0.00029     0.00403    -0.00428    -0.00214    -0.00104
  
  S  H  20  -0.01973     0.00242     0.01448    -0.02064    -0.00488    -0.04022
  
  S  C  21  -0.00604    -0.00194     0.01630     0.02619     0.00470     0.01481
 PX  C  21  -0.01250    -0.00414     0.00918     0.00637     0.00767    -0.00063
 PY  C  21  -0.01334    -0.00290     0.01785     0.02040     0.00580     0.00816
 PZ  C  21  -0.25169     0.03818     0.34779     0.37431    -0.03210     0.17628
  
  S  C  22   0.00540     0.01611    -0.01384    -0.02769    -0.03179    -0.00945
 PX  C  22   0.03648     0.03569    -0.04638    -0.05109    -0.03604    -0.01458
 PY  C  22  -0.00362     0.00775     0.00618     0.00562    -0.01498     0.00779
 PZ  C  22   0.20181     0.21577    -0.27473    -0.32024    -0.23795    -0.09145
  
  S  C  23   0.01695    -0.02956    -0.01337     0.00209     0.05634    -0.01253
 PX  C  23   0.01176    -0.02275    -0.00705     0.00423     0.03188    -0.00011
 PY  C  23   0.00361    -0.00108    -0.00427    -0.00459     0.00180    -0.00329
 PZ  C  23   0.21585    -0.27915    -0.15205    -0.00392     0.40972    -0.05707
  
  S  C  24  -0.00622     0.02071    -0.00054    -0.01083    -0.03349     0.00732
 PX  C  24  -0.00660     0.00680     0.00995     0.00445    -0.02056     0.00324
 PY  C  24   0.01015    -0.00998    -0.00664    -0.00097     0.01232    -0.00431
 PZ  C  24  -0.24094     0.05462     0.32537     0.24820    -0.29317     0.15291
  
  S  H  25  -0.00087     0.00032    -0.00308    -0.00683    -0.00125    -0.00327
  
  S  H  26  -0.00473    -0.00977     0.01325     0.02452     0.02058     0.01009
  
  S  H  27  -0.01472     0.01723     0.01404     0.00502    -0.03555     0.01152
  
  S  H  28  -0.00062    -0.01013     0.00389     0.00993     0.01761     0.00001
  
  S  C  29   0.00161     0.00334    -0.01807    -0.03180    -0.00020    -0.01963
 PX  C  29   0.00877    -0.00018    -0.00574    -0.00662    -0.00391    -0.00386
 PY  C  29  -0.00211     0.00931    -0.00493    -0.01048    -0.00292    -0.00186
 PZ  C  29  -0.13037    -0.33699    -0.00306    -0.12078     0.35644    -0.19137
  
  S  C  30   0.00555    -0.03003     0.01530     0.02232     0.01566    -0.00395
 PX  C  30   0.00867     0.00736    -0.01169     0.00356     0.00709     0.01361
 PY  C  30   0.00527    -0.00922    -0.00278    -0.00161     0.01035    -0.00530
 PZ  C  30  -0.17315     0.31894    -0.12856    -0.34794    -0.10108    -0.19904




    ROOT NO.   49          50          51          52          53          54

             2.22154     2.44648     2.75656     3.06108     3.15947     3.30828
  
  
  S  C   1  -0.08522     0.09318     0.23865     0.04278     0.25584     0.00154
 PX  C   1  -0.00119     0.03399     0.02828     0.02281     0.01961    -0.06445
 PY  C   1  -0.00302     0.01242     0.02193     0.00600     0.00214     0.06160
 PZ  C   1  -0.25810    -0.18296     0.00967    -0.21692     0.01003     0.03615
  
  S  C   2   0.10909    -0.13421    -0.27137    -0.06318    -0.24374     0.09750
 PX  C   2   0.00274    -0.02540     0.00181    -0.01475     0.03863     0.04442
 PY  C   2   0.02404    -0.04387    -0.04802    -0.02104    -0.01335     0.03250
 PZ  C   2   0.16777     0.12816    -0.01738     0.21857    -0.01728    -0.05050
  
  S  C   3  -0.13528     0.18863     0.28513     0.08290     0.13333    -0.11093
 PX  C   3   0.00149     0.00184    -0.06717    -0.00659    -0.07121    -0.09372
 PY  C   3  -0.00283     0.01270    -0.00759     0.00130    -0.08278     0.09757
 PZ  C   3  -0.00256    -0.01296     0.06273    -0.25929     0.06828     0.07482
  
  S  C   4   0.12044    -0.17388    -0.25132    -0.06643     0.01349    -0.19417
 PX  C   4   0.00477    -0.03863     0.01093    -0.02627     0.04803     0.06277
 PY  C   4  -0.01171     0.00686     0.06652     0.01603     0.10941    -0.09017
 PZ  C   4   0.05503     0.04531    -0.08317     0.27244    -0.09135    -0.06912
  
  S  C   5  -0.10264     0.10310     0.22226     0.01597     0.05918     0.23716
 PX  C   5  -0.00908     0.05359     0.03245     0.03552    -0.04931     0.02563
 PY  C   5  -0.00934    -0.00976    -0.01272    -0.01663    -0.02833    -0.00202
 PZ  C   5  -0.21899    -0.17155     0.02213    -0.25288     0.05185     0.00744
  
  S  C   6   0.04884    -0.09476    -0.19645    -0.04436    -0.14216    -0.17560
 PX  C   6  -0.00528    -0.03486    -0.03482    -0.02074    -0.01468    -0.00573
 PY  C   6   0.00094    -0.00179     0.01813     0.01020     0.07183    -0.05818
 PZ  C   6   0.29829     0.19105    -0.04848     0.22907    -0.05599    -0.04321
  
  S  C   7   0.14740    -0.18821    -0.15566    -0.04659     0.07005     0.24204
 PX  C   7   0.00251     0.01120     0.09241     0.02184     0.10585     0.04056
 PY  C   7   0.02014    -0.03912     0.01932     0.01237     0.05870     0.03809
 PZ  C   7  -0.16701    -0.12122    -0.03722     0.10266    -0.04690    -0.06216
  
  S  C   8  -0.11522     0.18136     0.11841     0.02456    -0.21848     0.18437
 PX  C   8  -0.02940     0.03950    -0.04520    -0.02091    -0.12038    -0.00279
 PY  C   8   0.00855    -0.03051    -0.06228    -0.00999    -0.03030    -0.03702
 PZ  C   8   0.12493     0.05798     0.03396    -0.10745     0.08056     0.03723
  
  S  C   9   0.16970    -0.22894    -0.02141     0.01149     0.39811    -0.09250
 PX  C   9   0.01801    -0.02172     0.05822     0.01576     0.01942     0.08620
 PY  C   9  -0.01865     0.02799     0.04156     0.01186    -0.03889    -0.14876
 PZ  C   9  -0.26024    -0.17467     0.00337    -0.05173    -0.05187    -0.06484
  
  S  C  10  -0.17654     0.22087     0.02979     0.00088    -0.24667    -0.27361
 PX  C  10   0.00200    -0.00086    -0.07761    -0.02179     0.08026    -0.07744
 PY  C  10  -0.02045     0.02786    -0.03834    -0.01613    -0.12056     0.08200
 PZ  C  10   0.28429     0.21222    -0.00749     0.06036     0.04209     0.05924
  
  S  C  11   0.14263    -0.21687     0.11374     0.05205     0.00102     0.29694
 PX  C  11  -0.01886     0.01736     0.07243     0.02654    -0.11733    -0.04184
 PY  C  11   0.02676    -0.04451     0.05865     0.01443    -0.04219     0.02041
 PZ  C  11  -0.10883    -0.08819     0.05754    -0.20058    -0.02994    -0.06015
  
  S  H  12  -0.07343     0.11886    -0.07054    -0.04163    -0.01944    -0.14573
  
  S  C  13  -0.11091     0.22332    -0.09982    -0.04863    -0.21718     0.18709
 PX  C  13   0.00747     0.01994    -0.07851    -0.04241     0.10760     0.02535
 PY  C  13   0.03812    -0.04787    -0.01882    -0.00236     0.09845    -0.00940
 PZ  C  13   0.11703     0.02281    -0.03958     0.18359     0.09537     0.00872
  
  S  H  14  -0.08393     0.10218     0.09531     0.03093    -0.08057    -0.11575
  
  S  H  15   0.05711    -0.05944    -0.15467    -0.02563    -0.17147     0.01347
  
  S  H  16  -0.06048     0.07401     0.16313     0.03750     0.14994    -0.03449
  
  S  H  17   0.06476    -0.05418    -0.14559    -0.00272    -0.06521    -0.13110
  
  S  H  18  -0.02829     0.06325     0.12201     0.03241     0.08207     0.12313
  
  S  H  19   0.05979    -0.09350    -0.06543    -0.01927     0.11089    -0.06035
  
  S  H  20   0.05906    -0.12564     0.05956     0.02392     0.12336    -0.07362
  
  S  C  21   0.11688    -0.16433     0.22836     0.01970    -0.23457     0.13666
 PX  C  21  -0.02342     0.06865    -0.03722    -0.03998     0.00808    -0.08037
 PY  C  21   0.01910     0.00643     0.02065    -0.02409    -0.02399    -0.03326
 PZ  C  21   0.18006     0.12467     0.04642    -0.25314     0.01784    -0.04573
  
  S  C  22  -0.11278     0.08943    -0.20048     0.04141     0.22623     0.02884
 PX  C  22  -0.01173    -0.06454     0.04575     0.04181    -0.04498     0.00165
 PY  C  22   0.00231    -0.02567     0.00905     0.01502    -0.02244     0.12143
 PZ  C  22  -0.23722    -0.16740    -0.02512     0.22278    -0.03213     0.01982
  
  S  C  23   0.11308    -0.08690     0.19454    -0.02752    -0.14697    -0.24424
 PX  C  23   0.01265     0.03894    -0.00663    -0.04153    -0.03811     0.05752
 PY  C  23  -0.01386     0.01794    -0.03333     0.00411     0.04984    -0.02770
 PZ  C  23   0.25472     0.17901     0.01973    -0.22799     0.03191     0.02058
  
  S  C  24  -0.10357     0.14235    -0.19627    -0.04871     0.07021     0.26724
 PX  C  24  -0.01311    -0.03337    -0.00967     0.04406     0.04549     0.02132
 PY  C  24   0.02866    -0.05449     0.04639     0.03095     0.00439    -0.02502
 PZ  C  24  -0.21976    -0.13270    -0.06097     0.25872     0.00416     0.00239
  
  S  H  25  -0.05957     0.09677    -0.13875    -0.01847     0.14215    -0.05215
  
  S  H  26   0.07314    -0.04767     0.11859    -0.03417    -0.13676    -0.00893
  
  S  H  27  -0.07132     0.05923    -0.12584     0.01586     0.09036     0.17006
  
  S  H  28   0.05679    -0.07270     0.11522     0.02448    -0.06207    -0.13749
  
  S  C  29  -0.14226     0.24830    -0.24677    -0.09199     0.16613    -0.18946
 PX  C  29  -0.00046    -0.02780    -0.02690     0.02939     0.08525    -0.03341
 PY  C  29   0.00017     0.02163    -0.05163    -0.03460     0.00434     0.14525
 PZ  C  29  -0.06591    -0.03451    -0.09585     0.34752     0.02101     0.07619
  
  S  C  30   0.10869    -0.23945     0.22055     0.13093    -0.01756    -0.17113
 PX  C  30   0.01042     0.01156     0.05420     0.00003    -0.11785     0.04282
 PY  C  30  -0.01491     0.03476    -0.02042    -0.01227     0.03005    -0.13553
 PZ  C  30   0.09837     0.02864     0.12403    -0.32248    -0.04912    -0.06263




    ROOT NO.   55          56          57          58          59          60

             3.54810     3.59885     3.67884     3.78740     4.16399     4.27604
  
  
  S  C   1  -0.00442    -0.24347     0.32156     0.00391    -0.02709    -0.02296
 PX  C   1  -0.01064     0.04332    -0.03329    -0.13537    -0.10704     0.06321
 PY  C   1  -0.00611    -0.03534     0.00805     0.11022     0.06043    -0.00335
 PZ  C   1   0.13162     0.06153    -0.02971    -0.00869     0.00200     0.00571
  
  S  C   2   0.02204     0.07412    -0.11715     0.25438     0.22630    -0.11769
 PX  C   2   0.01292    -0.11220     0.14664     0.08692     0.03682    -0.02947
 PY  C   2   0.01218    -0.05686     0.08652     0.02939    -0.04236     0.03845
 PZ  C   2  -0.16464    -0.06315     0.02149    -0.00510    -0.01842     0.00720
  
  S  C   3  -0.04418     0.16710    -0.23180    -0.24216    -0.05108    -0.04713
 PX  C   3   0.01745     0.03776     0.04177     0.00060     0.11346    -0.13417
 PY  C   3  -0.01431     0.07167    -0.16043     0.12525     0.07287     0.00010
 PZ  C   3   0.29995     0.08664     0.00244    -0.01696     0.00910    -0.00041
  
  S  C   4   0.06372    -0.14872     0.35483    -0.07875     0.02599    -0.09048
 PX  C   4   0.01880    -0.04237    -0.00048     0.13657     0.13077    -0.08413
 PY  C   4  -0.00690     0.03960    -0.05796    -0.11527     0.03772    -0.11876
 PZ  C   4  -0.29904    -0.08821     0.00436     0.03788     0.02146    -0.03582
  
  S  C   5  -0.01258    -0.00373    -0.16522     0.30147     0.22701    -0.11145
 PX  C   5  -0.03505     0.08936    -0.14684    -0.05080    -0.07048     0.04734
 PY  C   5   0.01124     0.06607    -0.09042    -0.01243     0.02589    -0.02424
 PZ  C   5   0.18899     0.05056     0.03369    -0.07055    -0.05286     0.04033
  
  S  C   6   0.02046     0.22202    -0.18860    -0.28792    -0.14419     0.04291
 PX  C   6   0.00936    -0.00489     0.01737     0.00718    -0.00718     0.02430
 PY  C   6  -0.00067    -0.08537     0.15392    -0.07578    -0.07240     0.02330
 PZ  C   6  -0.14199    -0.01702    -0.03032    -0.00606    -0.00522    -0.00422
  
  S  C   7  -0.02077    -0.19478     0.00775     0.13833    -0.19001     0.30092
 PX  C   7  -0.02491     0.02503    -0.12218    -0.09521    -0.08488     0.02541
 PY  C   7  -0.03758    -0.00053    -0.06819    -0.04997     0.00288    -0.08266
 PZ  C   7  -0.27909    -0.07765    -0.00880     0.01645    -0.02057     0.01677
  
  S  C   8  -0.00880     0.07483    -0.06450     0.09835    -0.19074     0.34228
 PX  C   8   0.03274    -0.01910     0.13818    -0.01537    -0.02155    -0.04109
 PY  C   8  -0.00042    -0.04162     0.09808    -0.00809    -0.02499     0.03478
 PZ  C   8   0.25701     0.05914     0.01819    -0.03129     0.00008     0.01595
  
  S  C   9  -0.05851    -0.03318    -0.21879    -0.06695     0.13016    -0.04597
 PX  C   9  -0.02778     0.02823    -0.08378     0.05255    -0.07136     0.17517
 PY  C   9   0.02990     0.07585     0.07175     0.03925     0.14106     0.07429
 PZ  C   9  -0.31317    -0.06341    -0.02491     0.01598    -0.00008    -0.02212
  
  S  C  10   0.08608     0.09333     0.22752     0.03420     0.17071     0.00764
 PX  C  10   0.01290    -0.06971    -0.05313     0.05318     0.07686     0.14880
 PY  C  10   0.01585    -0.03542     0.08127     0.06910    -0.10640     0.09924
 PZ  C  10   0.32906     0.06825     0.02585    -0.01715     0.02519     0.00398
  
  S  C  11  -0.08181     0.11135     0.03695    -0.07280    -0.23480    -0.28612
 PX  C  11   0.02028     0.07925     0.13957    -0.02968     0.03725    -0.02103
 PY  C  11  -0.00795     0.04080     0.04448    -0.02501     0.05788     0.05126
 PZ  C  11  -0.22776    -0.01579     0.00152     0.02215    -0.01468    -0.00455
  
  S  H  12   0.04573    -0.10083    -0.03035     0.02981     0.18953     0.26101
  
  S  C  13   0.06178    -0.14060     0.05126    -0.07311    -0.21932    -0.27285
 PX  C  13  -0.02672    -0.09999    -0.10213    -0.08537     0.04390    -0.02972
 PY  C  13  -0.01147    -0.02645    -0.05322    -0.04182    -0.00228    -0.07010
 PZ  C  13   0.20431     0.03977    -0.01786    -0.00443     0.04884     0.05945
  
  S  H  14   0.00474     0.14720    -0.01496    -0.07525     0.15534    -0.29221
  
  S  H  15  -0.00095     0.15457    -0.21293     0.00660    -0.00597     0.05615
  
  S  H  16  -0.01736    -0.05997     0.07827    -0.16393    -0.20244     0.13807
  
  S  H  17  -0.00126    -0.00486     0.11831    -0.19486    -0.20462     0.13653
  
  S  H  18  -0.01849    -0.15022     0.12703     0.19591     0.07439     0.00641
  
  S  H  19   0.00760    -0.04955     0.02828    -0.04024     0.13283    -0.29016
  
  S  H  20  -0.05754     0.08844    -0.03605     0.03336     0.16961     0.25149
  
  S  C  21   0.00797    -0.12180     0.03802    -0.27618     0.25712     0.11509
 PX  C  21   0.03490    -0.14054    -0.10269    -0.01605     0.05242     0.02474
 PY  C  21   0.01705    -0.06379    -0.04517     0.02091    -0.05478    -0.04274
 PZ  C  21  -0.13119     0.03674     0.01850     0.03148    -0.00911     0.00288
  
  S  C  22  -0.08452     0.33141     0.15256     0.14704    -0.06856     0.01473
 PX  C  22   0.02796    -0.03188    -0.00898    -0.02026     0.02391     0.02189
 PY  C  22  -0.04349     0.05461     0.07861    -0.12953     0.13162     0.05852
 PZ  C  22   0.10704    -0.05524    -0.03098    -0.01721    -0.00887    -0.01477
  
  S  C  23   0.13720    -0.27885    -0.20382     0.12318    -0.13127    -0.05485
 PX  C  23  -0.00947    -0.09940    -0.03658    -0.10921     0.08362     0.02273
 PY  C  23  -0.00834     0.06540     0.01708     0.07289    -0.04803    -0.00020
 PZ  C  23  -0.12414     0.08167     0.05611    -0.00332     0.01492     0.00881
  
  S  C  24  -0.10315    -0.02841     0.03006    -0.28218     0.23464     0.07654
 PX  C  24  -0.03003     0.15153     0.09484     0.02211     0.02035     0.02481
 PY  C  24  -0.01013     0.09826     0.06678     0.01636     0.05030     0.03853
 PZ  C  24   0.14127    -0.04303    -0.03590     0.00028    -0.00688    -0.00302
  
  S  H  25  -0.01595     0.09156    -0.01504     0.18714    -0.23545    -0.13360
  
  S  H  26   0.04556    -0.19947    -0.09131    -0.08617     0.01455    -0.03864
  
  S  H  27  -0.09097     0.18434     0.13869    -0.08378     0.06851     0.01371
  
  S  H  28   0.06386     0.01328    -0.01284     0.17804    -0.19505    -0.08675
  
  S  C  29   0.04927    -0.21257    -0.21965     0.09327    -0.00633     0.03800
 PX  C  29  -0.01258     0.12216     0.02274     0.14006    -0.13970    -0.06529
 PY  C  29  -0.03206    -0.08160    -0.04652    -0.09430    -0.07075    -0.13450
 PZ  C  29   0.23235    -0.00926    -0.01066    -0.03537     0.01181    -0.00129
  
  S  C  30   0.01935     0.28955     0.16209     0.18659     0.01232     0.10854
 PX  C  30   0.03075    -0.00669     0.04330     0.02010    -0.13318    -0.11867
 PY  C  30   0.04793    -0.06331    -0.08475     0.11882    -0.06906     0.00509
 PZ  C  30  -0.22365     0.04291     0.04153     0.04075    -0.01178     0.00460




    ROOT NO.   61          62          63          64          65          66

             5.19372     5.28284     5.49241     5.59484     6.08068     6.38914
  
  
  S  C   1  -0.05873    -0.28286     0.01288     0.10666    -0.04065    -0.00541
 PX  C   1  -0.05511     0.15221    -0.01424    -0.15524     0.10536     0.03358
 PY  C   1   0.16742     0.26212    -0.00676    -0.02289     0.00203    -0.00478
 PZ  C   1   0.00762     0.03181    -0.00157    -0.01452     0.00813     0.00199
  
  S  C   2   0.08535    -0.15460     0.01720     0.17375    -0.11467    -0.04170
 PX  C   2  -0.01883    -0.21589     0.01205     0.09867    -0.04050    -0.00832
 PY  C   2   0.00004     0.09399    -0.01186    -0.14424     0.21130     0.12738
 PZ  C   2  -0.00982     0.00187    -0.00079    -0.00933     0.00756     0.00336
  
  S  C   3  -0.00637     0.04810    -0.00126     0.08360    -0.18254    -0.10937
 PX  C   3   0.13664    -0.04287     0.00357     0.05754     0.09478     0.08289
 PY  C   3   0.02384    -0.07626     0.01265     0.12146    -0.15594    -0.08797
 PZ  C   3   0.01711    -0.00384     0.00076     0.00731     0.00362     0.00463
  
  S  C   4   0.01638     0.01306    -0.00780    -0.08879     0.16257     0.08675
 PX  C   4  -0.12752     0.04816    -0.00868    -0.13135     0.07705     0.02477
 PY  C   4  -0.05553     0.10611    -0.01005     0.01387    -0.17444    -0.11976
 PZ  C   4  -0.02628     0.00430    -0.00270    -0.02149     0.01483     0.00591
  
  S  C   5  -0.20169     0.02265    -0.01008    -0.17274     0.10405     0.02950
 PX  C   5  -0.00068    -0.04403     0.00447     0.08839    -0.12985    -0.06273
 PY  C   5  -0.22803    -0.12439    -0.00487    -0.14995     0.15686     0.07115
 PZ  C   5   0.05663    -0.00058     0.00312     0.04755    -0.03548    -0.01303
  
  S  C   6  -0.24356    -0.21592    -0.00043    -0.06489     0.05052     0.01928
 PX  C   6   0.20725     0.19720     0.00008     0.06830    -0.06908    -0.02770
 PY  C   6   0.06088    -0.12174     0.01040     0.12590    -0.07349    -0.01825
 PZ  C   6  -0.02290    -0.00700    -0.00072    -0.01027     0.00488     0.00157
  
  S  C   7  -0.21298     0.05244    -0.00336    -0.07206    -0.11685    -0.10001
 PX  C   7  -0.06864     0.00751    -0.00410     0.04854    -0.15050    -0.10469
 PY  C   7   0.10387    -0.02775    -0.00557     0.10894     0.14702     0.27023
 PZ  C   7  -0.02094     0.00529     0.00001    -0.00645    -0.01447    -0.01773
  
  S  C   8   0.16972    -0.17711     0.02151     0.07702     0.13139     0.10517
 PX  C   8  -0.04417     0.01244    -0.01985    -0.07167    -0.03011    -0.08375
 PY  C   8   0.03240    -0.07931     0.00739    -0.00926     0.16596     0.14320
 PZ  C   8   0.00747    -0.00182     0.00148    -0.00079     0.00506     0.00231
  
  S  C   9   0.03366     0.02843     0.02517     0.09762     0.01342     0.10671
 PX  C   9   0.13698    -0.11554     0.01252     0.06097     0.11245     0.10520
 PY  C   9   0.06175    -0.03555     0.01871    -0.14013     0.01840    -0.20684
 PZ  C   9  -0.00661     0.00652     0.00063     0.00585    -0.00171     0.00474
  
  S  C  10  -0.01650     0.02232     0.01295    -0.15354    -0.03435    -0.19499
 PX  C  10  -0.11169     0.07013     0.02012     0.05657    -0.07477     0.08892
[...]
  S   H   18   -0.0854   -0.0341    0.0666   -0.0340   -0.0257    0.3263    0.0041    0.1051
  S   H   19   -0.1874   -0.1713   -0.3260    0.1447   -0.1595    0.0519   -0.0060    0.0813
  S   H   20    0.1400   -0.2201   -0.2008   -0.1473   -0.2502   -0.0104    0.0626   -0.0625
  S   C   21    0.0948   -0.0517    0.0028   -0.0099    0.0121    0.0004    0.0805    0.0738
  Px  C   21    0.1216   -0.1357    0.1361    0.3457   -0.0211    0.0004   -0.0830   -0.0920
  Py  C   21   -0.1414    0.1147   -0.0537   -0.1378    0.0010    0.0010    0.2865    0.2039
  Pz  C   21    0.0001   -0.0013    0.0012    0.0027    0.0003   -0.0001   -0.0070   -0.0074
  S   C   22    0.0608   -0.0196   -0.0322   -0.0719    0.0020   -0.0002   -0.0745   -0.0222
  Px  C   22    0.0536   -0.0199   -0.0392   -0.0928    0.0004    0.0023    0.4864    0.0660
  Py  C   22    0.0818   -0.0434    0.0167    0.0360   -0.0002    0.0005   -0.0375    0.1229
  Pz  C   22   -0.0146    0.0074    0.0031    0.0071    0.0004   -0.0004   -0.0820   -0.0091
  S   C   23   -0.0494    0.0264   -0.0254   -0.0562   -0.0001    0.0004    0.1021   -0.0596
  Px  C   23   -0.1322    0.0651    0.0097    0.0308   -0.0173   -0.0019   -0.2038    0.1449
  Py  C   23   -0.0087    0.0147   -0.0462   -0.1014   -0.0060   -0.0016   -0.4059    0.1448
  Pz  C   23    0.0175   -0.0087    0.0031    0.0053    0.0021    0.0002    0.0158   -0.0073
  S   C   24   -0.1432    0.0665    0.0164    0.0248    0.0052   -0.0003   -0.0719    0.0528
  Px  C   24    0.0571   -0.0338    0.0182    0.0551   -0.0153   -0.0013   -0.1974    0.1613
  Py  C   24   -0.1905    0.1396    0.1436    0.3145    0.0051   -0.0008    0.2553   -0.1279
  Pz  C   24   -0.0030    0.0010    0.0012    0.0051   -0.0016   -0.0001    0.0103   -0.0081
  S   H   25   -0.1842    0.1500   -0.0939   -0.2288    0.0024    0.0004    0.1668    0.1235
  S   H   26   -0.0797    0.0325    0.0377    0.0840    0.0014   -0.0016   -0.3229   -0.0346
  S   H   27    0.0944   -0.0555    0.0305    0.0618    0.0118    0.0015    0.2652   -0.1174
  S   H   28    0.2230   -0.1349   -0.0974   -0.2026   -0.0130   -0.0000   -0.1996    0.1134
  S   C   29    0.1439   -0.1415    0.0890    0.2636   -0.0459   -0.0012    0.0385    0.0271
  Px  C   29   -0.0727    0.0368    0.0430    0.1462   -0.0410    0.0014   -0.1363   -0.1653
  Py  C   29    0.1521   -0.1750   -0.0485   -0.1353    0.0438   -0.0021   -0.0325   -0.1140
  Pz  C   29   -0.0038    0.0055   -0.0048   -0.0135    0.0026    0.0001   -0.0023   -0.0016
  S   C   30   -0.1475    0.1259    0.1057    0.2632   -0.0330    0.0003   -0.0041    0.0301
  Px  C   30   -0.0602    0.1045   -0.0042   -0.0597    0.0396    0.0007    0.0964   -0.0939
  Py  C   30    0.1484   -0.1194    0.0256    0.1371   -0.0657   -0.0035    0.1152   -0.0278
  Pz  C   30   -0.0162    0.0150    0.0150    0.0371   -0.0065   -0.0001   -0.0032    0.0065


   Root No.      73        74        75        76        77        78        79        80

                73 A      74 A      75 A      76 A      77 A      78 A      79 A      80 A   

                 9.336     9.484     9.970    10.679    10.808    11.404    11.655    12.096
  
  S   C    1    0.0677   -0.0644    0.0454   -0.0748   -0.0359    0.0107    0.0225   -0.0143
  Px  C    1    0.0993   -0.2025   -0.0754   -0.2132    0.1566   -0.2108    0.0914   -0.2067
  Py  C    1    0.1887   -0.0917    0.1943   -0.0644   -0.2029    0.1690   -0.0052    0.1098
  Pz  C    1    0.0007   -0.0104   -0.0115   -0.0098    0.0169   -0.0190    0.0061   -0.0172
  S   C    2   -0.0082    0.0777    0.0729    0.0365   -0.0880    0.0689    0.0112    0.0114
  Px  C    2    0.1203   -0.1953   -0.0083   -0.2467    0.0717   -0.1543    0.1257   -0.2250
  Py  C    2    0.0284    0.1755    0.2066   -0.0416   -0.1879    0.0810    0.1200   -0.1160
  Pz  C    2    0.0047   -0.0050    0.0020   -0.0090    0.0007   -0.0045    0.0049   -0.0075
  S   C    3   -0.0171    0.0445    0.0209    0.0557   -0.0464    0.0442    0.0060   -0.0027
  Px  C    3    0.1233    0.1430    0.2399   -0.0080   -0.0338   -0.0949   -0.1609    0.1029
  Py  C    3    0.0480    0.0284    0.1496   -0.1364   -0.2301    0.1144    0.3132   -0.3147
  Pz  C    3    0.0015    0.0020    0.0038   -0.0015    0.0003   -0.0015   -0.0062    0.0044
  S   C    4    0.0029    0.0475    0.0063    0.0705    0.0226   -0.0222   -0.0029   -0.0196
  Px  C    4   -0.2188    0.1101   -0.2127   -0.0975    0.1847   -0.0802   -0.0887    0.1668
  Py  C    4   -0.1629    0.1088   -0.0866   -0.0494   -0.1249    0.1480    0.3539   -0.2985
  Pz  C    4   -0.0125    0.0106   -0.0119   -0.0017    0.0074   -0.0029    0.0071   -0.0030
  S   C    5   -0.0786    0.0956   -0.0680    0.0508    0.0918   -0.0702   -0.0224   -0.0076
  Px  C    5   -0.1379    0.0220   -0.1424   -0.1615    0.0972   -0.0199   -0.0729    0.1875
  Py  C    5    0.1742   -0.2641    0.0972   -0.1881   -0.1489    0.1294    0.0232    0.0959
  Pz  C    5   -0.0039   -0.0061   -0.0041   -0.0157   -0.0018    0.0058   -0.0038    0.0153
  S   C    6   -0.0037   -0.0648   -0.0430   -0.0787    0.0308   -0.0219    0.0082    0.0070
  Px  C    6   -0.0477   -0.1748   -0.1369   -0.1793    0.0807   -0.0513    0.0231    0.0038
  Py  C    6    0.1451   -0.1367    0.1696   -0.1522   -0.2453    0.2398   -0.0195    0.2115
  Pz  C    6   -0.0037   -0.0242   -0.0163   -0.0258    0.0098   -0.0062    0.0021    0.0028
  S   C    7   -0.0807   -0.0388   -0.0841    0.0542   -0.0364    0.1037    0.0164   -0.0170
  Px  C    7    0.0588    0.1372    0.1613    0.0480   -0.0594    0.0106   -0.1516    0.0997
  Py  C    7   -0.2123   -0.0433   -0.1204    0.1673   -0.1176    0.2364   -0.0560   -0.0005
  Pz  C    7    0.0110    0.0059    0.0103   -0.0049    0.0037   -0.0107   -0.0020    0.0026
  S   C    8    0.1066   -0.0276    0.0528    0.0956    0.0389   -0.0608   -0.0416    0.0108
  Px  C    8    0.1651    0.0659    0.0097    0.2473    0.0994   -0.1307    0.1556   -0.1313
  Py  C    8   -0.2929    0.1376   -0.1422   -0.1434   -0.0435    0.0986    0.1795   -0.1296
  Pz  C    8   -0.0335    0.0106   -0.0142   -0.0198   -0.0075    0.0129    0.0140   -0.0083
  S   C    9    0.0101   -0.0423    0.0316   -0.0058    0.0012   -0.0288   -0.0364    0.0120
  Px  C    9    0.2488    0.0421    0.0485    0.2941    0.1547   -0.1841    0.1032   -0.1136
  Py  C    9    0.1532   -0.0282   -0.1298    0.0698    0.1624    0.3776   -0.2027   -0.0411
  Pz  C    9    0.0128   -0.0043   -0.0043    0.0063    0.0100    0.0174   -0.0167   -0.0024
  S   C   10    0.0174   -0.0351   -0.0261   -0.0080    0.0139   -0.0044    0.0158    0.0028
  Px  C   10   -0.2021   -0.0410    0.0651    0.2702   -0.2357   -0.1571    0.1034    0.0253
  Py  C   10   -0.1118    0.0285   -0.1243    0.0519   -0.0537    0.4303   -0.1868    0.0214
  Pz  C   10   -0.0022   -0.0008   -0.0033    0.0013   -0.0016    0.0019    0.0022    0.0002
  S   C   11    0.0618   -0.0224   -0.0683   -0.0781    0.0570    0.0525    0.0225    0.0211
  Px  C   11   -0.1261   -0.0699    0.0104    0.2204   -0.1639   -0.1255    0.1441    0.0560
  Py  C   11    0.1346   -0.1395   -0.1940   -0.0946    0.0519    0.0733    0.1210    0.1023
  Pz  C   11   -0.0037   -0.0013    0.0004    0.0068   -0.0057   -0.0043    0.0038    0.0014
  S   H   12    0.0999   -0.0609   -0.1083   -0.0906    0.0671    0.0804    0.0327    0.0417
  S   C   13   -0.0926   -0.0441    0.0646   -0.0649   -0.0557   -0.0785   -0.0450    0.0018
  Px  C   13   -0.1146   -0.1973    0.1394    0.0142    0.0332   -0.0256   -0.2696   -0.1165
  Py  C   13    0.3049    0.0802   -0.1324    0.1953    0.1627    0.1933   -0.0234   -0.0325
  Pz  C   13    0.0231    0.0100   -0.0147    0.0145    0.0124    0.0169    0.0085   -0.0001
  S   H   14   -0.1214   -0.0555   -0.0988    0.0559   -0.0435    0.1165    0.0173   -0.0313
  S   H   15    0.1247   -0.1133    0.0661   -0.1019   -0.0429    0.0096    0.0286   -0.0164
  S   H   16   -0.0132    0.1358    0.1077    0.0360   -0.1153    0.0829    0.0324   -0.0040
  S   H   17   -0.1243    0.1301   -0.0887    0.0454    0.1019   -0.0715   -0.0341    0.0049
  S   H   18   -0.0386   -0.0981   -0.0896   -0.0986    0.0574   -0.0388    0.0109   -0.0031
  S   H   19    0.2007   -0.0457    0.0757    0.1422    0.0547   -0.1042   -0.0413    0.0294
  S   H   20   -0.1929   -0.0940    0.1062   -0.0841   -0.0779   -0.1127   -0.0532   -0.0188
  S   C   21    0.0010    0.0887    0.0750   -0.0352    0.0834    0.0367    0.0127   -0.0130
  Px  C   21    0.0681   -0.0118   -0.1452   -0.1631   -0.0878   -0.0374   -0.1784   -0.1821
  Py  C   21    0.0566    0.2967    0.1122   -0.1860    0.1590    0.0690   -0.0438   -0.1179
  Pz  C   21   -0.0029   -0.0123   -0.0049    0.0107   -0.0092   -0.0049    0.0048    0.0096
  S   C   22   -0.0388   -0.0647    0.0400    0.0621    0.0323    0.0248    0.0220   -0.0002
  Px  C   22    0.1732    0.2222   -0.1628   -0.1547   -0.1137   -0.0723   -0.0506    0.0157
  Py  C   22   -0.0329    0.1460    0.2069   -0.1539    0.2763    0.1500   -0.0824   -0.2417
  Pz  C   22   -0.0293   -0.0352    0.0291    0.0244    0.0210    0.0127    0.0082   -0.0031
  S   C   23    0.0240   -0.0648   -0.0681    0.0693   -0.0467   -0.0001    0.0063   -0.0180
  Px  C   23    0.0159    0.2137   -0.0367   -0.1797   -0.1634   -0.1735    0.0119    0.2506
  Py  C   23   -0.1189    0.0938    0.2545   -0.0808    0.2297    0.1053   -0.0308   -0.1211
  Pz  C   23    0.0005   -0.0097    0.0024    0.0072    0.0102    0.0097   -0.0028   -0.0154
  S   C   24    0.0343    0.0858   -0.0611   -0.0293   -0.0881   -0.0477   -0.0219    0.0128
  Px  C   24    0.0051    0.2289    0.0307   -0.2147   -0.0706   -0.1356    0.0275    0.2598
  Py  C   24   -0.1437   -0.2044    0.2082   -0.0349    0.1949    0.0410    0.0922    0.1287
  Pz  C   24   -0.0089   -0.0134    0.0107    0.0018    0.0102    0.0039    0.0040    0.0015
  S   H   25    0.0089    0.1461    0.0961   -0.0451    0.1094    0.0493    0.0350   -0.0028
  S   H   26   -0.1136   -0.1344    0.1119    0.0898    0.0807    0.0488    0.0301   -0.0151
  S   H   27    0.0567   -0.1122   -0.1165    0.0927   -0.0654   -0.0016    0.0090   -0.0134
  S   H   28    0.0748    0.1723   -0.0991   -0.0471   -0.1265   -0.0667   -0.0431    0.0119
  S   C   29    0.0176    0.0650    0.0225   -0.0657    0.0541    0.0212    0.0064    0.0003
  Px  C   29    0.0829   -0.0931   -0.2411   -0.1064   -0.1830   -0.0656   -0.1829   -0.1689
  Py  C   29    0.0613   -0.0963   -0.1079    0.0163    0.1284    0.1065    0.3497    0.2491
  Pz  C   29    0.0002   -0.0028   -0.0006    0.0023    0.0002    0.0015   -0.0017   -0.0016
  S   C   30   -0.0023    0.0511    0.0070   -0.0511   -0.0221   -0.0246   -0.0023    0.0205
  Px  C   30   -0.1983   -0.2133    0.2264   -0.0539   -0.0036   -0.1126   -0.2778   -0.0874
  Py  C   30   -0.0717   -0.0340    0.1631   -0.0802    0.2561    0.0828    0.3162    0.3214
  Pz  C   30    0.0060    0.0124   -0.0051   -0.0028    0.0003    0.0011    0.0139    0.0085


   Root No.      81        82        83        84

                81 A      82 A      83 A      84 A   

                12.512    12.622    13.169    14.480
  
  S   C    1   -0.0388   -0.0432   -0.0037    0.0400
  Px  C    1   -0.2843   -0.0261   -0.1562    0.0988
  Py  C    1    0.1049   -0.0939    0.1068    0.0272
  Pz  C    1   -0.0207    0.0033   -0.0134    0.0042
  S   C    2    0.0201   -0.0075    0.0151    0.0222
  Px  C    2   -0.3108   -0.0545   -0.1570    0.1442
  Py  C    2   -0.1174   -0.0406   -0.0320    0.1131
  Pz  C    2   -0.0103   -0.0027   -0.0047    0.0052
  S   C    3    0.0002    0.0125   -0.0171    0.0310
  Px  C    3   -0.2371   -0.2134   -0.2384    0.2582
  Py  C    3   -0.1482    0.0638    0.0094    0.0790
  Pz  C    3   -0.0059   -0.0058   -0.0061    0.0057
  S   C    4   -0.0054    0.0199    0.0037    0.0243
  Px  C    4    0.0151   -0.3306    0.1761    0.2421
  Py  C    4   -0.0070    0.0330    0.2349    0.1081
  Pz  C    4   -0.0001   -0.0137    0.0154    0.0152
  S   C    5   -0.0278   -0.0069   -0.0149    0.0280
  Px  C    5    0.0402   -0.3423    0.1855    0.2105
  Py  C    5    0.0797   -0.1535    0.1363    0.0621
  Pz  C    5    0.0066   -0.0246    0.0158    0.0131
  S   C    6   -0.0204   -0.0686    0.0266    0.0466
  Px  C    6   -0.0490   -0.1318    0.0467    0.0890
  Py  C    6    0.1787   -0.2282    0.2222    0.0821
  Pz  C    6   -0.0055   -0.0201    0.0076    0.0124
  S   C    7    0.0281    0.0670   -0.0003    0.0076
  Px  C    7   -0.2143   -0.1626   -0.2425    0.2772
  Py  C    7   -0.0864    0.0543   -0.1312    0.1618
  Pz  C    7   -0.0022   -0.0066   -0.0011    0.0016
  S   C    8    0.0207    0.0436   -0.0075    0.0090
  Px  C    8    0.0763   -0.0640    0.2849    0.2662
  Py  C    8   -0.0315   -0.0946    0.1779    0.1277
  Pz  C    8   -0.0031   -0.0078    0.0107    0.0058
  S   C    9    0.0126    0.0537   -0.0126   -0.0148
  Px  C    9    0.0871   -0.0011    0.2764    0.2628
  Py  C    9   -0.1881    0.1666    0.0990    0.1574
  Pz  C    9   -0.0100    0.0122    0.0064    0.0092
  S   C   10    0.0565    0.0387    0.0062   -0.0112
  Px  C   10    0.1157   -0.0547   -0.2008    0.2656
  Py  C   10   -0.2393    0.0631   -0.1492    0.1688
  Pz  C   10    0.0022    0.0008   -0.0019    0.0023
  S   C   11    0.0453    0.0511   -0.0186   -0.0059
  Px  C   11    0.1862   -0.0005   -0.2187    0.2611
  Py  C   11    0.1719    0.1182   -0.1705    0.1379
  Pz  C   11    0.0048   -0.0004   -0.0056    0.0064
  S   H   12    0.0317    0.0560   -0.0338    0.0092
  S   C   13    0.0254    0.0339   -0.0058   -0.0216
  Px  C   13   -0.0278    0.2496    0.2226    0.2177
  Py  C   13   -0.0917    0.0655    0.1114    0.1504
  Pz  C   13   -0.0052   -0.0046    0.0016    0.0055
  S   H   14    0.0057    0.0630    0.0026    0.0037
  S   H   15   -0.0405   -0.0499    0.0012    0.0395
  S   H   16    0.0222   -0.0024    0.0260    0.0131
  S   H   17   -0.0277   -0.0125   -0.0212    0.0184
  S   H   18   -0.0335   -0.0650    0.0158    0.0428
  S   H   19    0.0385    0.0121   -0.0030    0.0146
  S   H   20    0.0389    0.0188    0.0044   -0.0169
  S   C   21    0.0081   -0.0208   -0.0035   -0.0250
  Px  C   21    0.3118    0.0990   -0.1296    0.1675
  Py  C   21    0.2117    0.0090   -0.1056    0.0567
  Pz  C   21   -0.0149   -0.0006    0.0071   -0.0044
  S   C   22   -0.0439   -0.0473    0.0140   -0.0347
  Px  C   22    0.0763    0.1118   -0.0172    0.0688
  Py  C   22    0.3148   -0.0577   -0.1616    0.0642
  Pz  C   22   -0.0106   -0.0171    0.0021   -0.0094
  S   C   23   -0.0265   -0.0661   -0.0041   -0.0368
  Px  C   23   -0.1236    0.2975    0.1239    0.0904
  Py  C   23    0.1462   -0.0327   -0.0703    0.0258
  Pz  C   23    0.0094   -0.0140   -0.0070   -0.0029
  S   C   24   -0.0263    0.0016    0.0138   -0.0229
  Px  C   24   -0.0877    0.3468    0.1170    0.1339
  Py  C   24    0.0164    0.1803    0.0184    0.1120
  Pz  C   24    0.0018    0.0013   -0.0012    0.0015
  S   H   25    0.0224   -0.0180   -0.0207   -0.0114
  S   H   26   -0.0339   -0.0659    0.0038   -0.0348
  S   H   27   -0.0356   -0.0650    0.0009   -0.0341
  S   H   28   -0.0327    0.0178    0.0270   -0.0117
  S   C   29    0.0096    0.0104    0.0096   -0.0267
  Px  C   29    0.2986    0.0999   -0.1412    0.1980
  Py  C   29    0.1478    0.0979   -0.2301    0.1557
  Pz  C   29    0.0005   -0.0001   -0.0005    0.0018
  S   C   30   -0.0029    0.0095   -0.0064   -0.0232
  Px  C   30   -0.0061    0.2711    0.2063    0.1848
  Py  C   30   -0.0059    0.2052   -0.0523    0.1091
  Pz  C   30    0.0003   -0.0068   -0.0081   -0.0063


              NET ATOMIC CHARGES AND DIPOLE CONTRIBUTIONS

  ATOM NO.   TYPE          CHARGE      No. of ELECS.   s-Pop       p-Pop       
    1          C          -0.028174        4.0282     1.11076     2.91742
    2          C          -0.033991        4.0340     1.11489     2.91910
    3          C           0.009895        3.9901     1.07295     2.91716
    4          C           0.014573        3.9854     1.06211     2.92332
    5          C          -0.019138        4.0191     1.09686     2.92228
    6          C          -0.028595        4.0286     1.10349     2.92511
    7          C          -0.022561        4.0226     1.08379     2.93877
    8          C          -0.033627        4.0336     1.09767     2.93595
    9          C           0.005997        3.9940     1.08004     2.91396
   10          C           0.007865        3.9921     1.07649     2.91564
   11          C          -0.033323        4.0333     1.10204     2.93129
   12          H           0.027973        0.9720     0.97203
   13          C          -0.040314        4.0403     1.11327     2.92704
   14          H           0.023558        0.9764     0.97644
   15          H           0.025085        0.9749     0.97492
   16          H           0.023664        0.9763     0.97634
   17          H           0.016000        0.9840     0.98400
   18          H           0.025833        0.9742     0.97417
   19          H           0.019459        0.9805     0.98054
   20          H           0.031923        0.9681     0.96808
   21          C          -0.033727        4.0337     1.11846     2.91526
   22          C          -0.032652        4.0327     1.10115     2.93150
   23          C          -0.028101        4.0281     1.10489     2.92321
   24          C          -0.026263        4.0263     1.09850     2.92777
   25          H           0.014731        0.9853     0.98527
   26          H           0.036507        0.9635     0.96349
   27          H           0.029159        0.9708     0.97084
   28          H           0.026205        0.9738     0.97379
   29          C           0.015099        3.9849     1.07098     2.91392
   30          C           0.006941        3.9931     1.08616     2.90690
 DIPOLE           X         Y         Z       TOTAL
 POINT-CHG.     0.105     0.086    -0.072     0.153
 HYBRID        -0.243    -0.088    -0.340     0.427
 SUM           -0.138    -0.002    -0.411     0.434


          ATOMIC ORBITAL ELECTRON POPULATIONS

     Atom    s        px        py        pz   
    1  C   1.11076   0.96794   0.95236   0.99712
    2  C   1.11489   0.96606   0.94480   1.00824
    3  C   1.07295   0.96847   0.96523   0.98346
    4  C   1.06211   0.96438   0.97561   0.98332
    5  C   1.09686   0.96981   0.95310   0.99937
    6  C   1.10349   0.94344   0.99173   0.98994
    7  C   1.08379   0.96875   0.94880   1.02123
    8  C   1.09767   0.96022   0.96647   1.00927
    9  C   1.08004   0.96917   0.96081   0.98399
   10  C   1.07649   0.97394   0.96576   0.97594
   11  C   1.10204   0.97484   0.94304   1.01340
   12  H   0.97203
   13  C   1.11327   0.96753   0.94693   1.01259
   14  H   0.97644
   15  H   0.97492
   16  H   0.97634
   17  H   0.98400
   18  H   0.97417
   19  H   0.98054
   20  H   0.96808
   21  C   1.11846   0.96092   0.94684   1.00750
   22  C   1.10115   0.95402   0.97968   0.99780
   23  C   1.10489   0.97571   0.94629   1.00121
   24  C   1.09850   0.96575   0.95909   1.00292
   25  H   0.98527
   26  H   0.96349
   27  H   0.97084
   28  H   0.97379
   29  C   1.07098   0.96280   0.96411   0.98701
   30  C   1.08616   0.97061   0.96395   0.97234

 **********************
 *                    *
 * JOB ENDED NORMALLY *
 *                    *
 **********************



 TOTAL JOB TIME:             2.04 SECONDS

 == MOPAC DONE ==


          MOPAC Job: "./tetraceneTraj/tetracene_1887.mop" ended normally on Feb 15, 2023, at 11:37.

rm: cannot remove ./tetraceneTraj/tetracene_1887.cim: No such file or directory
rm: cannot remove ./tetraceneTraj/tetracene_1887.end: No such file or directory
rm: cannot remove ./tetraceneTraj/tetracene_1887.log: No such file or directory
rm: cannot remove ./tetraceneTraj/tetracene_1887.temp: No such file or directory
rm: cannot remove ./tetraceneTraj/tetracene_1887.ple: No such file or directory
rm: cannot remove ./tetraceneTraj/tetracene_1887.sts: No such file or directory
