 *******************************************************************************
 ** Site#:    0         For non-commercial use only    Version 20.173L 64BITS **
 *******************************************************************************
 ** Cite this program as: MOPAC2016, Version: 20.173L, James J. P. Stewart,   **
 ** Stewart Computational Chemistry, web-site: HTTP://OpenMOPAC.net.          **
 *******************************************************************************
 **                                                                           **
 **                                MOPAC2016                                  **
 **                                                                           **
 *******************************************************************************

                              INDO CALCULATION RESULTS

 *******************************************************************************
 *  CALCULATION DONE:                                Wed Feb 15 11:22:09 2023  *
 *  INDO       - The INDO Hamiltonian to be used
 *
 *
 *
 *                 CHARGE ON SYSTEM = 0
 *
 *
 *
 *  C.I.=(N,M) - 3 DOUBLY FILLED LEVELS USED IN A C.I. INVOLVING 6 M.O.'S
 *  T=         - A TIME OF 172800.0 SECONDS REQUESTED
 *  DUMP=N     - RESTART FILE WRITTEN EVERY 7200.0 SECONDS REQUESTED
 *  RELSCF     - DEFAULT SCF CRITERION MULTIPLIED BY 0.0000
 *              (DEFAULT SCF CRITERION = 0.00010)
 *  ALLVEC     - PRINT ALL EIGENVECTORS
 **********
 *  WARNING: Specified print options may not behave as expected with INDO
 **********
 *******************************************************************************
INDO C.I.=(6,3) AllVEC CHARGE=0 RELSCF=0.000001


   ATOM   CHEMICAL          X               Y               Z
  NUMBER   SYMBOL      (ANGSTROMS)     (ANGSTROMS)     (ANGSTROMS)
 
     1       C         18.55784572  *  19.48891358  *  22.39195167  *
     2       C         19.94851703  *  19.39608895  *  22.46230977  *
     3       C         20.73161865  *  20.62777861  *  22.45192302  *
     4       C         20.00877206  *  21.95514088  *  22.46213364  *
     5       C         18.55437553  *  21.96298230  *  22.48001477  *
     6       C         17.86871024  *  20.77778100  *  22.40057964  *
     7       C         22.12999092  *  20.62671209  *  22.47170561  *
     8       C         20.70295887  *  23.15560061  *  22.50549168  *
     9       C         22.09506677  *  23.14021317  *  22.53820767  *
    10       C         22.85873853  *  21.86934122  *  22.47260476  *
    11       C         24.26283144  *  21.85200841  *  22.51658805  *
    12       H         24.66055937  *  20.82218169  *  22.35061521  *
    13       C         22.88282659  *  24.32767052  *  22.53839637  *
    14       H         22.74561226  *  19.65090312  *  22.38448573  *
    15       H         17.90404564  *  18.57591252  *  22.27109452  *
    16       H         20.39920681  *  18.40981923  *  22.31429218  *
    17       H         18.02200853  *  22.91906306  *  22.51071556  *
    18       H         16.74670540  *  20.76419084  *  22.33795690  *
    19       H         20.13787708  *  24.08702961  *  22.56581999  *
    20       H         22.34844496  *  25.29612685  *  22.60462864  *
    21       C         26.48817161  *  23.07523698  *  22.58136697  *
    22       C         27.15105951  *  24.26411104  *  22.59502587  *
    23       C         26.43001824  *  25.56747444  *  22.54751722  *
    24       C         25.05588503  *  25.57862167  *  22.57503965  *
    25       H         26.97587831  *  22.09940768  *  22.48618820  *
    26       H         28.25598696  *  24.35246634  *  22.53511751  *
    27       H         26.98752126  *  26.46772366  *  22.61268590  *
    28       H         24.47426034  *  26.52648534  *  22.58126133  *
    29       C         25.02343161  *  23.01973705  *  22.54087299  *
    30       C         24.27789834  *  24.31699729  *  22.50565581  *
 


          CARTESIAN COORDINATES 

    NO.       ATOM           X           Y           Z

     1         C         18.5578     19.4889     22.3920
     2         C         19.9485     19.3961     22.4623
     3         C         20.7316     20.6278     22.4519
     4         C         20.0088     21.9551     22.4621
     5         C         18.5544     21.9630     22.4800
     6         C         17.8687     20.7778     22.4006
     7         C         22.1300     20.6267     22.4717
     8         C         20.7030     23.1556     22.5055
     9         C         22.0951     23.1402     22.5382
    10         C         22.8587     21.8693     22.4726
    11         C         24.2628     21.8520     22.5166
    12         H         24.6606     20.8222     22.3506
    13         C         22.8828     24.3277     22.5384
    14         H         22.7456     19.6509     22.3845
    15         H         17.9040     18.5759     22.2711
    16         H         20.3992     18.4098     22.3143
    17         H         18.0220     22.9191     22.5107
    18         H         16.7467     20.7642     22.3380
    19         H         20.1379     24.0870     22.5658
    20         H         22.3484     25.2961     22.6046
    21         C         26.4882     23.0752     22.5814
    22         C         27.1511     24.2641     22.5950
    23         C         26.4300     25.5675     22.5475
    24         C         25.0559     25.5786     22.5750
    25         H         26.9759     22.0994     22.4862
    26         H         28.2560     24.3525     22.5351
    27         H         26.9875     26.4677     22.6127
    28         H         24.4743     26.5265     22.5813
    29         C         25.0234     23.0197     22.5409
    30         C         24.2779     24.3170     22.5057

           Empirical Formula: C18 H12  =    30 atoms



      MOLECULAR POINT GROUP   :   C2  


      RHF CALCULATION, NO. OF DOUBLY OCCUPIED LEVELS = 42

 WARNING: INDO only performs single-point calculations
  SCF CRITERION =    0.1000E-09

 Summary of symmetry occupancy in each shell:

 SHELL     
    1   42
    v   42
 TOTAL  84




    ROOT NO.    1           2           3           4           5           6

           -44.66475   -42.72811   -40.29772   -36.94052   -35.96773   -34.20402
  
  
  S  C   1   0.11025     0.21220    -0.26186    -0.26200     0.02643     0.12369
 PX  C   1   0.03011     0.04996    -0.04594    -0.02179     0.04776     0.08614
 PY  C   1   0.04010     0.07316    -0.08162    -0.06029    -0.02979    -0.04320
 PZ  C   1   0.00162     0.00284    -0.00287    -0.00148    -0.00009     0.00017
  
  S  C   2   0.13791     0.22588    -0.21794    -0.15447     0.16521     0.28116
 PX  C   2  -0.00332    -0.02907     0.06830     0.09592     0.05540     0.02766
 PY  C   2   0.05691     0.08403    -0.06355    -0.01248     0.02428     0.02217
 PZ  C   2  -0.00289    -0.00553     0.00670     0.00678    -0.00477    -0.00959
  
  S  C   3   0.26112     0.28464    -0.08399     0.11676     0.22890     0.21719
 PX  C   3   0.00937    -0.05457     0.13233     0.12072     0.10178     0.04539
 PY  C   3   0.05951     0.02823     0.05826     0.11572    -0.06599    -0.11628
 PZ  C   3   0.00190     0.00106     0.00169     0.00373    -0.00015    -0.00109
  
  S  C   4   0.27577     0.30063    -0.08251     0.19552    -0.13951    -0.18971
 PX  C   4   0.05247    -0.01063     0.12444     0.15163     0.06851     0.09243
 PY  C   4  -0.01328    -0.05021     0.08285     0.09372    -0.11716    -0.11707
 PZ  C   4   0.00247     0.00149     0.00213     0.00553    -0.00362    -0.00382
  
  S  C   5   0.15080     0.24378    -0.22542    -0.09013    -0.19760    -0.28224
 PX  C   5   0.04988     0.05835    -0.01382     0.06357    -0.02609    -0.03012
 PY  C   5  -0.03115    -0.06802     0.09430     0.10252    -0.01317    -0.02280
 PZ  C   5  -0.00206    -0.00433     0.00572     0.00544     0.00181     0.00264
  
  S  C   6   0.11393     0.21841    -0.26684    -0.24463    -0.10231    -0.11857
 PX  C   6   0.05092     0.08965    -0.09357    -0.05839    -0.01440    -0.00767
 PY  C   6   0.00602     0.00627     0.00305     0.03021    -0.04954    -0.09871
 PZ  C   6   0.00194     0.00340    -0.00349    -0.00172    -0.00230    -0.00366
  
  S  C   7   0.24033     0.12780     0.12926     0.15561     0.36343     0.16589
 PX  C   7  -0.03028    -0.07457     0.04203    -0.08127     0.00181    -0.08747
 PY  C   7   0.08509     0.01761     0.08116     0.06030     0.02503    -0.03555
 PZ  C   7  -0.00086    -0.00131     0.00042    -0.00081    -0.00500    -0.00312
  
  S  C   8   0.25833     0.15018     0.13230     0.29070    -0.27505    -0.15892
 PX  C   8   0.05483    -0.02658     0.09420     0.01524    -0.00814     0.09115
 PY  C   8  -0.07220    -0.07353    -0.00680    -0.09727    -0.03373     0.04034
 PZ  C   8  -0.00020    -0.00107     0.00108    -0.00019    -0.00305     0.00057
  
  S  C   9   0.34899    -0.00054     0.27739     0.05770    -0.22174     0.03346
 PX  C   9   0.02470    -0.09698     0.02259    -0.20622     0.04294     0.05374
 PY  C   9  -0.04989    -0.04861    -0.03475    -0.08260    -0.15049     0.03871
 PZ  C   9  -0.00621    -0.00137    -0.00515    -0.00322    -0.00004     0.00033
  
  S  C  10   0.34600    -0.01719     0.27709    -0.04226     0.23447    -0.01318
 PX  C  10  -0.02569    -0.09308    -0.01794    -0.19901     0.03869    -0.07822
 PY  C  10   0.04989    -0.05120     0.03591    -0.07837    -0.16048    -0.01607
 PZ  C  10   0.00573    -0.00175     0.00487    -0.00306    -0.00090    -0.00065
  
  S  C  11   0.24887    -0.15431     0.13639    -0.26509     0.25538    -0.21383
 PX  C  11  -0.05783    -0.01836    -0.09372     0.01737    -0.02945    -0.07082
 PY  C  11   0.06838    -0.07588     0.00460    -0.09504    -0.04662    -0.03973
 PZ  C  11  -0.00319     0.00089    -0.00332     0.00363    -0.00825     0.00334
  
  S  H  12   0.07753    -0.04069     0.04599    -0.07677     0.14593    -0.09477
  
  S  C  13   0.24871    -0.14850     0.13459    -0.17457    -0.33289     0.21097
 PX  C  13   0.02671    -0.07546    -0.04450    -0.08886     0.01202     0.06168
 PY  C  13  -0.08482     0.02152    -0.08304     0.05584     0.01335     0.04203
 PZ  C  13  -0.00113    -0.00003    -0.00151     0.00104    -0.00113     0.00099
  
  S  H  14   0.06838     0.03141     0.03659     0.02179     0.16216     0.06681
  
  S  H  15   0.02671     0.05521    -0.07590    -0.09147     0.01053     0.05064
  
  S  H  16   0.04042     0.06489    -0.06165    -0.04871     0.08259     0.13335
  
  S  H  17   0.04738     0.07330    -0.06261    -0.01168    -0.09791    -0.14138
  
  S  H  18   0.02806     0.05767    -0.07824    -0.08554    -0.04033    -0.05137
  
  S  H  19   0.08010     0.04799     0.03538     0.09293    -0.15047    -0.08552
  
  S  H  20   0.07574    -0.04303     0.03758    -0.03400    -0.16023     0.10602
  
  S  C  21   0.13550    -0.23608    -0.23607     0.10614     0.16306    -0.28766
 PX  C  21  -0.04514     0.05783     0.01829     0.05376    -0.01843     0.03819
 PY  C  21   0.02927    -0.06674    -0.09573     0.09438    -0.00513     0.02714
 PZ  C  21  -0.00245     0.00378     0.00288     0.00024    -0.00373     0.00648
  
  S  C  22   0.10462    -0.21410    -0.27712     0.24268     0.09498    -0.10807
 PX  C  22  -0.04665     0.08753     0.09634    -0.05607    -0.01442     0.00813
 PY  C  22  -0.00542     0.00616    -0.00254     0.02548    -0.03805     0.10403
 PZ  C  22  -0.00198     0.00399     0.00500    -0.00406    -0.00207     0.00261
  
  S  C  23   0.10315    -0.21132    -0.27478     0.25427    -0.00925     0.14427
 PX  C  23  -0.02765     0.04837     0.04572    -0.01560     0.03785    -0.08398
 PY  C  23  -0.03690     0.07136     0.08313    -0.05657    -0.02583     0.04114
 PZ  C  23   0.00148    -0.00320    -0.00457     0.00498     0.00003     0.00256
  
  S  C  24   0.13446    -0.23166    -0.22975     0.13447    -0.13094     0.29110
 PX  C  24   0.00235    -0.02978    -0.07651     0.10392     0.05610    -0.02814
 PY  C  24  -0.05312     0.08204     0.06196    -0.00282     0.01688    -0.01207
 PZ  C  24  -0.00197     0.00344     0.00328    -0.00127     0.00218    -0.00438
  
  S  H  25   0.04261    -0.07080    -0.06544     0.01897     0.07987    -0.14556
  
  S  H  26   0.02622    -0.05769    -0.08326     0.08792     0.03629    -0.04330
  
  S  H  27   0.02764    -0.06059    -0.08733     0.09672    -0.00545     0.06677
  
  S  H  28   0.04138    -0.06744    -0.06161     0.03452    -0.07355     0.14401
  
  S  C  29   0.25732    -0.29981    -0.08975    -0.18072     0.12037    -0.23332
 PX  C  29  -0.05761     0.00181    -0.12308     0.15500     0.05097    -0.07565
 PY  C  29   0.01938    -0.05700    -0.08485     0.07167    -0.08922     0.11387
 PZ  C  29  -0.00185     0.00063    -0.00277     0.00446    -0.00182     0.00156
  
  S  C  30   0.25920    -0.29756    -0.08443    -0.14714    -0.18971     0.20049
 PX  C  30  -0.01496    -0.04768    -0.13600     0.11951     0.09854    -0.06496
 PY  C  30  -0.05795     0.03032    -0.06003     0.10919    -0.06154     0.13897
 PZ  C  30   0.00493    -0.00680    -0.00375    -0.00130    -0.00493     0.00597




    ROOT NO.    7           8           9          10          11          12

           -32.04895   -31.15904   -28.89953   -28.11784   -27.02971   -26.06531
  
  
  S  C   1   0.15256     0.26672     0.18092     0.26354    -0.00675     0.19974
 PX  C   1   0.10756    -0.07680     0.12281    -0.16605    -0.04320     0.05146
 PY  C   1  -0.06738     0.02261    -0.10604    -0.00272     0.08208    -0.09182
 PZ  C   1   0.00020    -0.00329    -0.00017    -0.00841     0.00234    -0.00201
  
  S  C   2   0.28097    -0.02629     0.20723    -0.13301    -0.13012     0.01288
 PX  C   2  -0.02288    -0.13771    -0.12336    -0.11843    -0.03595    -0.19881
 PY  C   2  -0.00438    -0.07309    -0.06882    -0.08888     0.09539    -0.08529
 PZ  C   2  -0.01110    -0.00382    -0.01212    -0.00038     0.00936    -0.00651
  
  S  C   3   0.09824    -0.24329    -0.11658    -0.13367     0.11336    -0.16976
 PX  C   3  -0.05579     0.01308    -0.14590     0.13470    -0.06570    -0.08598
 PY  C   3  -0.08998    -0.01037    -0.01770     0.10401     0.17652     0.13006
 PZ  C   3  -0.00121    -0.00259    -0.00223    -0.00013     0.00485    -0.00140
  
  S  C   4  -0.06669    -0.24426     0.11681    -0.10663     0.08561     0.19052
 PX  C   4   0.10811     0.01847     0.02683     0.17308     0.12249    -0.02281
 PY  C   4  -0.00782     0.02457     0.13411     0.08401    -0.17173     0.08875
 PZ  C   4   0.00049    -0.00250     0.00538     0.00095    -0.00307     0.00347
  
  S  C   5  -0.27427    -0.05880    -0.15286    -0.16040    -0.10222    -0.06145
 PX  C   5   0.03057    -0.13589     0.14765    -0.11682     0.01472     0.19089
 PY  C   5   0.01856    -0.07811     0.09574    -0.04136    -0.11443     0.08471
 PZ  C   5   0.00478    -0.00381     0.00717    -0.00158    -0.00282     0.00564
  
  S  C   6  -0.17106     0.24915    -0.23053     0.22948     0.04889    -0.17631
 PX  C   6   0.00064    -0.02510     0.03190    -0.09034     0.03268     0.05940
 PY  C   6  -0.12141    -0.09010    -0.12371    -0.15942    -0.04607    -0.12932
 PZ  C   6  -0.00443    -0.00287    -0.00410    -0.00828    -0.00006    -0.00360
  
  S  C   7  -0.14763    -0.02816    -0.24131     0.09249    -0.18149    -0.05228
 PX  C   7  -0.12746     0.13948     0.06660     0.02787    -0.15418     0.17371
 PY  C   7  -0.07058     0.07863    -0.00389     0.10052     0.12674     0.13591
 PZ  C   7   0.00073     0.00214     0.00329    -0.00025     0.00913     0.00364
  
  S  C   8   0.13951     0.01659     0.23810     0.13002    -0.16669    -0.00946
 PX  C   8   0.11291     0.16400    -0.07205     0.09041     0.09401    -0.18100
 PY  C   8   0.05461     0.08684    -0.01930    -0.04118    -0.16991    -0.14271
 PZ  C   8   0.00369     0.00367     0.00136     0.00070    -0.00749    -0.00666
  
  S  C   9   0.19096     0.26428    -0.01356     0.00862     0.10290    -0.15903
 PX  C   9  -0.06623     0.01578    -0.10203    -0.18656     0.11072     0.07191
 PY  C   9   0.11361     0.00026    -0.03091    -0.11092    -0.20762    -0.14761
 PZ  C   9  -0.00084    -0.00392    -0.00032    -0.00319    -0.00828    -0.00112
  
  S  C  10  -0.21559     0.21790    -0.01408     0.01344     0.04955     0.18520
 PX  C  10  -0.07626    -0.00996     0.14142    -0.15920    -0.13253     0.03549
 PY  C  10   0.12947     0.03789     0.05461    -0.09716     0.24180    -0.06690
 PZ  C  10  -0.00068     0.00482     0.00123    -0.00289     0.01015     0.00293
  
  S  C  11  -0.14954     0.00549     0.25520    -0.08398    -0.14658    -0.05121
 PX  C  11   0.13349    -0.13918     0.04514     0.07919    -0.01387    -0.21017
 PY  C  11   0.08237    -0.07602     0.03580    -0.03997     0.21533    -0.08239
 PZ  C  11   0.00841    -0.00369    -0.00584     0.00227     0.01619    -0.00367
  
  S  H  12  -0.09006     0.01300     0.10874    -0.00221    -0.21018    -0.02635
  
  S  C  13   0.13329     0.01747    -0.22041    -0.14836    -0.18415    -0.01422
 PX  C  13  -0.10441    -0.16961    -0.05306     0.01005     0.08345     0.21979
 PY  C  13  -0.06010    -0.10127    -0.03324     0.08962    -0.17666     0.07703
 PZ  C  13   0.00054    -0.00062    -0.00115     0.00102    -0.00653    -0.00209
  
  S  H  14  -0.07377    -0.00902    -0.08516     0.00352    -0.21122    -0.04004
  
  S  H  15   0.06874     0.14202     0.09641     0.18583    -0.02743     0.12611
  
  S  H  16   0.13397    -0.00819     0.10884    -0.04924    -0.13109     0.00308
  
  S  H  17  -0.13146    -0.03014    -0.06480    -0.06827    -0.12261    -0.04324
  
  S  H  18  -0.08130     0.13395    -0.12962     0.16585     0.00550    -0.12243
  
  S  H  19   0.05915     0.00153     0.12541     0.01476    -0.21061    -0.02460
  
  S  H  20   0.06103     0.00379    -0.10393    -0.02801    -0.21824    -0.03320
  
  S  C  21   0.30328    -0.01553    -0.18346     0.10842    -0.13365     0.00010
 PX  C  21   0.00665     0.14022    -0.11504    -0.14157    -0.07288     0.17399
 PY  C  21   0.00556     0.07932    -0.07608    -0.05715     0.06624     0.14656
 PZ  C  21  -0.00507     0.00280     0.00025    -0.00397     0.00420     0.00452
  
  S  C  22   0.13961     0.27622    -0.17815    -0.25904    -0.02169     0.21055
 PX  C  22  -0.00314     0.03019    -0.01788    -0.09700    -0.04145     0.04562
 PY  C  22  -0.14480     0.07347     0.14659    -0.11540     0.09445    -0.08904
 PZ  C  22  -0.00301    -0.00425     0.00337     0.00414     0.00075    -0.00413
  
  S  C  23  -0.21377     0.24902     0.22014    -0.19569     0.07824    -0.18786
 PX  C  23   0.09783     0.09682    -0.07940    -0.18021     0.02020     0.07310
 PY  C  23  -0.06597    -0.02209     0.09499     0.00639    -0.03190    -0.13465
 PZ  C  23  -0.00434     0.00720     0.00561    -0.00727     0.00270    -0.00609
  
  S  C  24  -0.28847    -0.07992     0.14430     0.17635    -0.09490    -0.05545
 PX  C  24  -0.04525     0.14366     0.14336    -0.08307     0.11026    -0.17407
 PY  C  24  -0.02490     0.08286     0.07827    -0.07320    -0.04807    -0.12842
 PZ  C  24   0.00378     0.00434    -0.00014    -0.00622     0.00173    -0.00308
  
  S  H  25   0.14495    -0.01185    -0.07758     0.04731    -0.12827    -0.03463
  
  S  H  26   0.05989     0.15384    -0.09145    -0.18982    -0.03021     0.12913
  
  S  H  27  -0.10993     0.14357     0.13519    -0.15294     0.03124    -0.14437
  
  S  H  28  -0.13578    -0.04101     0.06203     0.07533    -0.11356    -0.03962
  
  S  C  29   0.12156    -0.23886     0.11595     0.12020     0.12934    -0.17651
 PX  C  29   0.11396    -0.00063    -0.07813     0.15307    -0.11964    -0.06999
 PY  C  29   0.00055    -0.04087    -0.12585     0.06497     0.11898     0.15288
 PZ  C  29   0.00284    -0.00001    -0.00479     0.00373     0.00066     0.00012
  
  S  C  30  -0.05877    -0.27036    -0.11968     0.09830     0.05100     0.20266
 PX  C  30  -0.03995    -0.03962     0.11308     0.16806     0.08708    -0.05485
 PY  C  30  -0.09828    -0.00921    -0.03798     0.10261    -0.20208     0.07076
 PZ  C  30  -0.00171    -0.00675    -0.00412     0.00439    -0.00072     0.00525




    ROOT NO.   13          14          15          16          17          18

           -25.05803   -23.88588   -22.84713   -21.45881   -20.58030   -19.11693
  
  
  S  C   1  -0.01372    -0.12135     0.02175     0.17736    -0.04089     0.00213
 PX  C   1   0.01100     0.24502    -0.00701    -0.03422     0.21409     0.17346
 PY  C   1  -0.13841    -0.01878    -0.20092    -0.10174    -0.12866     0.19070
 PZ  C   1  -0.00688     0.01306    -0.01127    -0.00706     0.00773     0.02652
  
  S  C   2   0.15731     0.18068     0.10162    -0.12945     0.10488     0.01898
 PX  C   2   0.09186    -0.04901     0.03346    -0.16670    -0.14641    -0.14007
 PY  C   2  -0.17252    -0.02121    -0.21294    -0.06464    -0.15965     0.08502
 PZ  C   2  -0.01352    -0.00718    -0.01458    -0.00141    -0.01260     0.00781
  
  S  C   3  -0.09389    -0.11005    -0.03363    -0.09484    -0.07271    -0.15185
 PX  C   3   0.17679    -0.14888     0.16190     0.10282    -0.02403    -0.01766
 PY  C   3  -0.19247    -0.06775     0.00369     0.11740     0.16524    -0.09452
 PZ  C   3  -0.00381    -0.00204    -0.00111    -0.00269    -0.00300    -0.00017
  
  S  C   4  -0.14342    -0.08951    -0.00282     0.09883    -0.03598    -0.15549
 PX  C   4  -0.05890    -0.14262     0.05832    -0.18106     0.11798    -0.07518
 PY  C   4   0.22356    -0.07844     0.14063    -0.01401    -0.09337     0.04267
 PZ  C   4   0.00342    -0.00274     0.00165    -0.00149    -0.00427     0.00232
  
  S  C   5   0.15113     0.18491     0.11610     0.09608     0.11245     0.00405
 PX  C   5  -0.13077    -0.02783    -0.11667     0.19124    -0.18769    -0.01338
 PY  C   5   0.15912    -0.02374     0.17055     0.09882    -0.04101    -0.17491
 PZ  C   5   0.00248    -0.00135     0.00299     0.00482    -0.00323    -0.00254
  
  S  C   6   0.01780    -0.12811    -0.01468    -0.16299    -0.04258     0.01692
 PX  C   6  -0.12206     0.12416    -0.15344     0.11731     0.01561     0.24189
 PY  C   6   0.10252     0.20982     0.08923    -0.08691     0.24816     0.03947
 PZ  C   6  -0.00131     0.01411    -0.00418    -0.00004     0.01237     0.01936
  
  S  C   7   0.14296    -0.10705    -0.03443     0.21994    -0.06261     0.15943
 PX  C   7  -0.00732     0.13953    -0.15253     0.08676     0.03674     0.17452
 PY  C   7  -0.10720     0.10060     0.04501     0.02080     0.20821    -0.00802
 PZ  C   7  -0.00521     0.00583     0.00330    -0.00624     0.00299    -0.00366
  
  S  C   8   0.11403    -0.11211    -0.07928    -0.18208    -0.07096     0.15499
 PX  C   8  -0.07930     0.14042    -0.07801    -0.09659     0.20177     0.06043
 PY  C   8   0.07210     0.05079    -0.17175    -0.02036    -0.10821     0.14859
 PZ  C   8   0.00288     0.00216    -0.00956    -0.00445    -0.00345     0.01034
  
  S  C   9   0.00047     0.22122    -0.00164    -0.01677    -0.00054     0.00146
 PX  C   9   0.00451     0.07082     0.12688     0.18628    -0.17655    -0.14560
 PY  C   9  -0.00695    -0.08102    -0.20198     0.11101    -0.07743    -0.08495
 PZ  C   9   0.00026    -0.00396    -0.00749     0.00361    -0.00359    -0.00171
  
  S  C  10  -0.00204     0.23015     0.03482     0.00716    -0.01554     0.02346
 PX  C  10  -0.01006    -0.05308    -0.12888    -0.15088    -0.16468    -0.13867
 PY  C  10   0.01067     0.08270     0.17638    -0.10938    -0.11815    -0.09290
 PZ  C  10   0.00095     0.00888     0.00725    -0.00284    -0.00680    -0.00016
  
  S  C  11  -0.13228    -0.10949    -0.06625    -0.20477     0.06325    -0.16615
 PX  C  11  -0.07516    -0.15991     0.06744     0.03753     0.19304     0.03737
 PY  C  11   0.08273    -0.06870     0.16452     0.02115    -0.09569     0.12225
 PZ  C  11   0.00712     0.00215     0.01403     0.01111    -0.00676     0.01537
  
  S  H  12  -0.12790    -0.05672    -0.12269    -0.09718     0.13697    -0.14735
  
  S  C  13  -0.12412    -0.10345    -0.03360     0.21140     0.07590    -0.14994
 PX  C  13   0.02884    -0.13670     0.17531    -0.08188     0.01173     0.16339
 PY  C  13  -0.11303    -0.10803    -0.02560    -0.02995     0.21989    -0.01768
 PZ  C  13  -0.00249    -0.00023    -0.00663     0.00425     0.00481    -0.00704
  
  S  H  14   0.12257    -0.06180    -0.09705     0.12031    -0.13120     0.14550
  
  S  H  15   0.05844    -0.14406     0.12187     0.16149    -0.03654    -0.19567
  
  S  H  16   0.20544     0.09265     0.18867    -0.07063     0.11290    -0.08793
  
  S  H  17   0.20873     0.08883     0.19290     0.04165     0.09212    -0.09980
  
  S  H  18   0.08342    -0.14742     0.09334    -0.16365    -0.03699    -0.17714
  
  S  H  19   0.12747    -0.07535    -0.10674    -0.06483    -0.16860     0.14756
  
  S  H  20  -0.13627    -0.07177    -0.08589     0.10832     0.16196    -0.14214
  
  S  C  21  -0.16520     0.16678     0.12916     0.10744    -0.11230     0.00183
 PX  C  21  -0.09609     0.00733     0.13221    -0.17483    -0.20196    -0.00406
 PY  C  21   0.16477     0.03322    -0.18432    -0.09589    -0.04661    -0.17253
 PZ  C  21   0.00690    -0.00080    -0.00613    -0.00292    -0.00222    -0.00807
  
  S  C  22   0.02110    -0.12867    -0.01376    -0.17464     0.03069    -0.02301
 PX  C  22  -0.09520    -0.14102     0.16731    -0.13451     0.01362     0.23222
 PY  C  22   0.09996    -0.18971    -0.09627     0.06025     0.25457     0.03479
 PZ  C  22  -0.00027     0.00383     0.00024     0.00552    -0.00414    -0.00419
  
  S  C  23   0.00474    -0.10966     0.01673     0.17248     0.05547    -0.00160
 PX  C  23   0.03651    -0.23960     0.01037     0.02167     0.22196     0.16723
 PY  C  23  -0.14276    -0.01082     0.21466     0.10842    -0.10488     0.20037
 PZ  C  23   0.00015    -0.00542     0.00160     0.00916     0.00240     0.00095
  
  S  C  24  -0.15467     0.17688     0.10020    -0.14642    -0.12882    -0.02474
 PX  C  24   0.07892     0.04985    -0.06610     0.18300    -0.11258    -0.14782
 PY  C  24  -0.17098     0.00005     0.21473     0.04932    -0.14419     0.06637
 PZ  C  24  -0.00010    -0.00395     0.00259     0.00753    -0.00115     0.00036
  
  S  H  25  -0.20842     0.06735     0.21207     0.05595    -0.08905     0.10621
  
  S  H  26  -0.04246    -0.16713     0.09821    -0.17918     0.04179     0.16800
  
  S  H  27  -0.06053    -0.14635     0.13323     0.16467     0.05117     0.19490
  
  S  H  28  -0.20001     0.07150     0.19248    -0.10679    -0.10640     0.07871
  
  S  C  29   0.10511    -0.10062    -0.01395     0.08864     0.08365     0.12823
 PX  C  29  -0.09187     0.15215    -0.04717     0.17705     0.11120    -0.06046
 PY  C  29   0.22942     0.09746    -0.15184     0.05417    -0.08418     0.06748
 PZ  C  29   0.00083     0.00583    -0.00004     0.00932     0.00104    -0.00083
  
  S  C  30   0.12716    -0.10053    -0.02481    -0.07939     0.05542     0.15901
 PX  C  30   0.14889     0.15104    -0.18013    -0.09106    -0.01536    -0.00470
 PY  C  30  -0.18240     0.07291     0.01267    -0.13417     0.12264    -0.08562
 PZ  C  30   0.00250    -0.00011    -0.00318     0.00012     0.00369    -0.00018




    ROOT NO.   19          20          21          22          23          24

           -18.35934   -17.19363   -17.00983   -16.63508   -15.86970   -15.48439
  
  
  S  C   1  -0.16972     0.00933    -0.07536    -0.10280    -0.05283     0.05832
 PX  C   1   0.05472    -0.15165    -0.06370     0.01316    -0.16473     0.11128
 PY  C   1   0.13349     0.17223     0.02654     0.08832    -0.15803     0.07116
 PZ  C   1   0.00857     0.00014    -0.01676     0.00025    -0.03631     0.03086
  
  S  C   2   0.15682     0.02233     0.01396     0.06996     0.00525     0.02506
 PX  C   2   0.12917     0.18030     0.10278     0.06653     0.17979    -0.10406
 PY  C   2  -0.02204     0.13698    -0.22574    -0.18802     0.03291     0.25684
 PZ  C   2  -0.00563     0.01207    -0.03036    -0.01701    -0.01048     0.03363
  
  S  C   3  -0.03233    -0.02321    -0.18476    -0.11743     0.08686    -0.00910
 PX  C   3  -0.16903     0.01533    -0.01608     0.00425    -0.22394    -0.12765
 PY  C   3  -0.06351    -0.28051     0.04231     0.03246     0.03113    -0.12732
 PZ  C   3  -0.00189     0.01024    -0.03028    -0.00420    -0.00487     0.01536
  
  S  C   4   0.06175    -0.06295     0.18723     0.09851     0.09371    -0.02023
 PX  C   4   0.13696    -0.19842    -0.06995    -0.05409    -0.07599     0.14007
 PY  C   4   0.10535     0.16061     0.09104     0.06504    -0.19340     0.12958
 PZ  C   4   0.00004     0.01149    -0.02334    -0.00167    -0.00556     0.01639
  
  S  C   5  -0.16685     0.01295    -0.01031    -0.07015     0.00400    -0.00659
 PX  C   5  -0.02569     0.16792     0.17149     0.13686     0.11222    -0.13821
 PY  C   5  -0.09190     0.11362    -0.18729    -0.16168     0.14973     0.22964
 PZ  C   5  -0.00793     0.00967    -0.02503    -0.01392    -0.00154     0.02623
  
  S  C   6   0.16682     0.00327     0.07350     0.10818    -0.05443    -0.04465
 PX  C   6  -0.18154     0.04677     0.02184    -0.03850    -0.23067    -0.06640
 PY  C   6  -0.00258    -0.22914     0.02120     0.00159    -0.05238    -0.09476
 PZ  C   6  -0.01040    -0.00561    -0.01301    -0.00889    -0.02953     0.01264
  
  S  C   7  -0.11708    -0.04809     0.05574     0.04690    -0.08514    -0.00754
 PX  C   7   0.13309    -0.04508     0.15082     0.08142     0.14898     0.12448
 PY  C   7   0.08458    -0.02656    -0.29320     0.05488     0.04287    -0.15819
 PZ  C   7   0.00444     0.01195    -0.03770     0.00737     0.00016    -0.00186
  
  S  C   8   0.09050    -0.03788    -0.04787    -0.02648    -0.08164     0.00448
 PX  C   8  -0.15574    -0.08058     0.15017    -0.10568     0.11978     0.07518
 PY  C   8  -0.08718     0.00188    -0.28316    -0.04967     0.07482    -0.23958
 PZ  C   8  -0.00677     0.00409    -0.03404     0.00136     0.00537    -0.00678
  
  S  C   9  -0.12250     0.11911     0.17607    -0.08523     0.07631     0.05989
 PX  C   9   0.03440     0.14665    -0.02624     0.06860    -0.03776    -0.05641
 PY  C   9  -0.07263    -0.22173     0.05888    -0.02427     0.13063    -0.04330
 PZ  C   9  -0.00264    -0.00078    -0.02931     0.02052     0.00723    -0.00475
  
  S  C  10   0.12206     0.14131    -0.18026     0.09305     0.06183    -0.07117
 PX  C  10   0.06285    -0.13125    -0.04444    -0.03514     0.08398    -0.00941
 PY  C  10  -0.05181     0.21702     0.09016    -0.05252    -0.09782     0.05604
 PZ  C  10   0.00093     0.01878    -0.03295     0.02518    -0.00141    -0.00264
  
  S  C  11  -0.07775    -0.02431     0.00272    -0.05497    -0.08689    -0.00246
 PX  C  11  -0.18036     0.06202     0.14379    -0.03451    -0.16262     0.03396
 PY  C  11  -0.11333    -0.00693    -0.13172     0.24258    -0.11376    -0.10601
 PZ  C  11  -0.00488     0.01296    -0.03434     0.04999    -0.00771    -0.00581
  
  S  H  12  -0.00989    -0.00108     0.17454    -0.23850    -0.00918     0.10275
  
  S  C  13   0.09030    -0.04428    -0.00955     0.05745    -0.08000     0.02226
 PX  C  13   0.16627     0.02583     0.04322    -0.17727    -0.17784     0.09981
 PY  C  13   0.08132     0.03657    -0.19088     0.17956    -0.07801    -0.01094
 PZ  C  13  -0.00382     0.00295    -0.02527     0.03371     0.00708    -0.00002
  
  S  H  14  -0.05612    -0.03116     0.32292     0.01233    -0.00984     0.17444
  
  S  H  15  -0.19584    -0.03848    -0.02415    -0.11938     0.17427    -0.07941
  
  S  H  16   0.13759    -0.02911     0.22429     0.20439     0.04486    -0.22862
  
  S  H  17  -0.13792     0.02415    -0.22523    -0.21234     0.06487     0.22617
  
  S  H  18   0.22766    -0.03414     0.01867     0.08761     0.17780     0.03443
  
  S  H  19   0.04514     0.01614    -0.30996    -0.00469    -0.04301    -0.20386
  
  S  H  20   0.03315    -0.00881    -0.17725     0.24779    -0.02671    -0.03955
  
  S  C  21   0.15643    -0.00375    -0.02627    -0.05059     0.00139     0.02444
 PX  C  21  -0.01983    -0.21540     0.03088    -0.17423    -0.15316    -0.12177
 PY  C  21  -0.09301    -0.13935    -0.04968     0.20832    -0.10857     0.28304
 PZ  C  21  -0.00420    -0.00608    -0.01329     0.03121    -0.01337     0.03492
  
  S  C  22  -0.15849     0.00929     0.00605     0.10388    -0.04294     0.04794
 PX  C  22  -0.17338    -0.03401     0.04326     0.01849     0.22964    -0.13175
 PY  C  22  -0.00552     0.28514     0.02552    -0.02615     0.04711    -0.13055
 PZ  C  22   0.00668    -0.00628    -0.00895     0.01449    -0.01096     0.02650
  
  S  C  23   0.15853     0.00853    -0.00709    -0.09766    -0.07199    -0.03795
 PX  C  23   0.08021     0.17929    -0.03323     0.00606     0.19091     0.11674
 PY  C  23   0.13342    -0.20243    -0.03008    -0.04920     0.17537     0.08536
 PZ  C  23   0.00979    -0.00141    -0.00820     0.01155    -0.00390     0.02280
  
  S  C  24  -0.17122     0.02295     0.03170     0.04776     0.01124    -0.04417
 PX  C  24   0.10383    -0.19194     0.01495    -0.08049    -0.22567    -0.11160
 PY  C  24  -0.06016    -0.14120    -0.05121     0.26011     0.00902     0.23967
 PZ  C  24   0.00372    -0.00393    -0.01166     0.02494    -0.00244     0.02650
  
  S  H  25   0.13760     0.02361     0.04207    -0.26009     0.01764    -0.25841
  
  S  H  26  -0.21625    -0.00532     0.04039     0.06706     0.18537    -0.09722
  
  S  H  27   0.20596    -0.05797    -0.04013    -0.08214     0.17800     0.09772
  
  S  H  28  -0.16828    -0.00304    -0.03469     0.25974     0.10988     0.20995
  
  S  C  29  -0.08565    -0.03393    -0.05308     0.19710     0.09000     0.04500
 PX  C  29   0.13706     0.23266    -0.01157     0.04362     0.11574     0.10801
 PY  C  29   0.12648    -0.16967     0.00578    -0.08052     0.24038     0.04866
 PZ  C  29   0.00480     0.01395    -0.02264     0.03764    -0.00222     0.01937
  
  S  C  30   0.07299    -0.04418     0.05940    -0.21104     0.06994    -0.04163
 PX  C  30  -0.16053    -0.00701    -0.00825     0.03807     0.24364    -0.12817
 PY  C  30  -0.03935     0.29068     0.02876    -0.08924    -0.04521    -0.09361
 PZ  C  30   0.00007     0.00802    -0.01726     0.02571     0.00306     0.01183




    ROOT NO.   25          26          27          28          29          30

           -14.99330   -14.78753   -14.63127   -14.45804   -13.53886   -13.36658
  
  
  S  C   1   0.01021     0.02608    -0.00831    -0.02393    -0.05832     0.02181
 PX  C   1  -0.24938    -0.13780     0.06659    -0.02284    -0.12255     0.09062
 PY  C   1  -0.05312     0.05302    -0.15331     0.21284    -0.08403     0.07580
 PZ  C   1  -0.04141     0.04192     0.09090     0.07730    -0.11284    -0.20289
  
  S  C   2  -0.06416     0.00339    -0.02558     0.07938     0.02352    -0.02470
 PX  C   2   0.20613     0.13053    -0.09293     0.06042     0.16394    -0.08547
 PY  C   2  -0.14474     0.04274    -0.03410    -0.06517     0.07239    -0.00419
 PZ  C   2  -0.02832     0.06787     0.12208     0.07651    -0.09341    -0.23001
  
  S  C   3   0.03408    -0.04009     0.02234    -0.03697    -0.00783     0.00888
 PX  C   3   0.14863    -0.02546    -0.01724     0.08257    -0.26489     0.09200
 PY  C   3  -0.01697    -0.12473     0.11577    -0.06277    -0.02607     0.01409
 PZ  C   3  -0.01520     0.11748     0.21127     0.12838    -0.09849    -0.27831
  
  S  C   4  -0.06329    -0.00733     0.03564    -0.03649    -0.01610     0.00366
 PX  C   4  -0.11827    -0.02389     0.04656    -0.10875    -0.15336     0.05249
 PY  C   4  -0.04373     0.09247    -0.09657     0.06567    -0.20587     0.07120
 PZ  C   4  -0.01476     0.12403     0.21843     0.13637    -0.09736    -0.28970
  
  S  C   5   0.09207     0.06973    -0.02969     0.00324     0.02646    -0.02324
 PX  C   5   0.04761     0.00546    -0.02977     0.11170     0.13381    -0.04606
 PY  C   5  -0.18474     0.06204    -0.11795     0.11492     0.09829     0.02143
 PZ  C   5  -0.02012     0.07675     0.12283     0.09291    -0.08650    -0.24616
  
  S  C   6  -0.00827    -0.02930     0.00229     0.03501    -0.05483     0.01864
 PX  C   6   0.25744     0.10549    -0.07411    -0.00056    -0.13194     0.04109
 PY  C   6   0.05972    -0.09071     0.15176    -0.20751    -0.04694    -0.00804
 PZ  C   6  -0.00109     0.05591     0.09834     0.06114    -0.10684    -0.22069
  
  S  C   7  -0.07110    -0.02223     0.03258    -0.00301     0.01314    -0.00333
 PX  C   7  -0.19579     0.02823     0.01681    -0.05865     0.26991    -0.09197
 PY  C   7   0.03476    -0.10352    -0.10150     0.28175     0.10866    -0.02143
 PZ  C   7  -0.00371     0.11478     0.20293     0.11873    -0.04654    -0.13733
  
  S  C   8   0.04388    -0.01234     0.02286    -0.05928     0.00764    -0.00881
 PX  C   8   0.10090     0.21942    -0.07013    -0.04622     0.18853    -0.07817
 PY  C   8   0.11534    -0.20207     0.07882     0.00352     0.19266    -0.04615
 PZ  C   8  -0.00017     0.11573     0.22732     0.12157    -0.03363    -0.15776
  
  S  C   9   0.01477    -0.00032     0.02561     0.02813     0.01708     0.00630
 PX  C   9  -0.11019    -0.23844     0.07881     0.06782    -0.18124     0.08767
 PY  C   9  -0.07763    -0.11436     0.05881     0.04690    -0.09590     0.03898
 PZ  C   9  -0.00966     0.15371     0.28311     0.13437    -0.00605    -0.00181
  
  S  C  10   0.00416     0.02315    -0.04437    -0.03772     0.01226    -0.01251
 PX  C  10   0.06230     0.12292     0.05976    -0.25176    -0.21894     0.03911
 PY  C  10   0.06130     0.02352     0.03022    -0.13892    -0.13298     0.04483
 PZ  C  10  -0.00759     0.15899     0.27771     0.11310     0.00443     0.01234
  
  S  C  11   0.07546     0.04072     0.00628     0.01459    -0.02108     0.02870
 PX  C  11  -0.04517    -0.12321    -0.03766     0.24536     0.21019    -0.02871
 PY  C  11  -0.13528     0.15836    -0.00911    -0.24417     0.14318    -0.06082
 PZ  C  11  -0.01763     0.13430     0.22590     0.05689     0.07499     0.15069
  
  S  H  12   0.11968    -0.16686    -0.02481     0.27449    -0.06159     0.03453
  
  S  C  13  -0.05982    -0.01473    -0.02522     0.04978    -0.01924     0.00053
 PX  C  13   0.12799    -0.10633     0.08364    -0.00387     0.24507    -0.09353
 PY  C  13   0.03561     0.31077    -0.17488    -0.09504     0.04729    -0.04068
 PZ  C  13  -0.00568     0.13197     0.20973     0.09113     0.02932     0.15324
  
  S  H  14  -0.14303     0.06694     0.08756    -0.23842     0.05487    -0.02000
  
  S  H  15   0.17434     0.04094     0.06761    -0.17026     0.12170    -0.08008
  
  S  H  16   0.16213     0.01148    -0.03271     0.10117     0.03543    -0.01864
  
  S  H  17  -0.11703     0.07453    -0.08996     0.04829     0.03803     0.01968
  
  S  H  18  -0.23668    -0.11473     0.06399     0.01553     0.11120    -0.02000
  
  S  H  19   0.05887    -0.24572     0.10454     0.00414     0.06754    -0.01103
  
  S  H  20  -0.05192     0.27677    -0.16894    -0.05295    -0.08186     0.01514
  
  S  C  21   0.06553     0.00643     0.03743    -0.06703    -0.01845     0.00903
 PX  C  21  -0.00717     0.15954    -0.05787    -0.00140     0.10541    -0.01739
 PY  C  21   0.24397    -0.04218    -0.03861     0.08175     0.06811    -0.02214
 PZ  C  21   0.03125     0.06245     0.13469     0.04968     0.09912     0.25218
  
  S  C  22  -0.00653    -0.04817     0.01375     0.01571     0.04881    -0.01350
 PX  C  22  -0.19985     0.02987    -0.09136     0.17483    -0.11205     0.07135
 PY  C  22  -0.16823    -0.09178     0.10856    -0.14579    -0.03348    -0.02798
 PZ  C  22   0.02965     0.04802     0.10360     0.03511     0.08822     0.23124
  
  S  C  23   0.00569     0.03889    -0.00321    -0.03786     0.03998    -0.02915
 PX  C  23   0.20983    -0.05165     0.10144    -0.16292    -0.09686     0.01331
 PY  C  23   0.16825     0.11354    -0.10482     0.13640    -0.08258     0.07969
 PZ  C  23   0.02547     0.04401     0.10207     0.03174     0.07679     0.22299
  
  S  C  24  -0.08415    -0.04182     0.02962     0.00188    -0.01774     0.02409
 PX  C  24  -0.17064     0.08197    -0.10981     0.14719     0.12401    -0.03326
 PY  C  24   0.08606    -0.15852     0.02204     0.01559     0.05177    -0.10143
 PZ  C  24   0.01980     0.05496     0.13176     0.04489     0.07868     0.23580
  
  S  H  25  -0.16270     0.09197     0.01729    -0.09851    -0.03029    -0.00296
  
  S  H  26  -0.19036    -0.00609    -0.07497     0.16009    -0.09440     0.05145
  
  S  H  27   0.22940     0.08594    -0.03000     0.00951    -0.09280     0.06861
  
  S  H  28   0.10189    -0.17277     0.07980    -0.06227    -0.03293    -0.05266
  
  S  C  29  -0.03964     0.01830    -0.04582     0.02845     0.01813    -0.01344
 PX  C  29   0.05588    -0.16598     0.07559    -0.02270    -0.12221     0.01639
 PY  C  29   0.07152     0.00162    -0.05756     0.11147    -0.19238     0.04060
 PZ  C  29   0.01029     0.11217     0.23245     0.07087     0.10320     0.29514
  
  S  C  30   0.04927     0.01306    -0.01930     0.05569     0.01672    -0.00314
 PX  C  30  -0.07318     0.13958    -0.07879     0.00761    -0.23485     0.10344
 PY  C  30  -0.00743     0.00356     0.08076    -0.12022    -0.00811     0.04763
 PZ  C  30   0.00858     0.11614     0.22398     0.08116     0.08472     0.29081




    ROOT NO.   31          32          33          34          35          36

           -13.03364   -12.95679   -12.15110   -11.77585   -11.71268   -11.37920
  
  
  S  C   1   0.01945    -0.00173     0.00818     0.00230     0.00396     0.01369
 PX  C   1  -0.20361    -0.09182    -0.10863     0.03538     0.04738     0.15301
 PY  C   1   0.13024    -0.26472     0.18731     0.03380    -0.02318     0.05587
 PZ  C   1  -0.03840    -0.03672     0.02286    -0.32066    -0.00138    -0.00146
  
  S  C   2  -0.00138    -0.01794    -0.03875    -0.02136     0.01697    -0.04074
 PX  C   2   0.19242     0.10622     0.06322    -0.01367    -0.03766    -0.18202
 PY  C   2  -0.05431     0.19631    -0.20914     0.01428     0.04242    -0.11499
 PZ  C   2  -0.03866     0.00826    -0.01413    -0.24576     0.02037    -0.02561
  
  S  C   3   0.02394     0.03188     0.01418     0.00036    -0.00103     0.01111
 PX  C   3  -0.05585    -0.11465    -0.14310    -0.00634     0.10863     0.19853
 PY  C   3  -0.00120    -0.17273     0.29424     0.00691    -0.10305     0.12039
 PZ  C   3  -0.02858     0.00905    -0.00729    -0.07341     0.03117    -0.01843
  
  S  C   4  -0.02919    -0.02593     0.01335    -0.00483     0.00436    -0.01813
 PX  C   4   0.18507     0.06164     0.22659     0.02126    -0.09181    -0.21676
 PY  C   4   0.03515     0.10368    -0.25170     0.00115     0.11446    -0.15200
 PZ  C   4  -0.02329    -0.00121     0.02964    -0.05375    -0.04180     0.00632
  
  S  C   5   0.02327     0.00445    -0.03825    -0.01158     0.02347     0.03344
 PX  C   5  -0.19885    -0.09474    -0.19480    -0.02151     0.07834     0.20640
 PY  C   5   0.04193    -0.23010     0.13932     0.02222    -0.01617     0.09482
 PZ  C   5  -0.01219    -0.02531     0.06418    -0.24192    -0.04924    -0.00368
  
  S  C   6   0.00591    -0.01700     0.01118     0.00319    -0.00238    -0.01760
 PX  C   6   0.25022     0.06254     0.13628     0.02753    -0.04082    -0.14132
 PY  C   6  -0.08730     0.27320    -0.16690     0.00446     0.01811    -0.09980
 PZ  C   6  -0.00606    -0.00297     0.05229    -0.32414    -0.03638    -0.03055
  
  S  C   7  -0.04672    -0.06353    -0.03398     0.00564     0.04887    -0.01987
 PX  C   7   0.03947     0.06564     0.11366     0.00554    -0.07893    -0.21394
 PY  C   7   0.10020    -0.06549    -0.16953    -0.01692     0.12203    -0.17685
 PZ  C   7  -0.00161     0.01041    -0.02199     0.12775     0.06772    -0.01837
  
  S  C   8   0.05557     0.05577    -0.01756    -0.00555     0.03837    -0.00125
 PX  C   8   0.04944    -0.12361    -0.08339    -0.02304     0.12822     0.22383
 PY  C   8  -0.11613    -0.03718     0.13431    -0.00967    -0.09981     0.15208
 PZ  C   8  -0.01175    -0.00177     0.02753     0.16865    -0.06097     0.03780
  
  S  C   9  -0.06750    -0.02724    -0.00726     0.01678    -0.00087     0.01578
 PX  C   9  -0.10251     0.08450     0.10118     0.02120    -0.15081    -0.21817
 PY  C   9   0.15197    -0.18659    -0.06826    -0.02995     0.25768    -0.20013
 PZ  C   9   0.01758     0.00395    -0.00448     0.33919    -0.04087     0.01580
  
  S  C  10   0.00102     0.06430     0.00881    -0.02436     0.00067     0.00458
 PX  C  10   0.14337    -0.07428     0.01862    -0.02416     0.20099     0.19252
 PY  C  10  -0.18264     0.12642     0.13161     0.01360    -0.22916     0.19771
 PZ  C  10   0.01329     0.01642    -0.00266     0.31175     0.06183    -0.00113
  
  S  C  11  -0.04880    -0.05232    -0.00321     0.01144     0.05094     0.00743
 PX  C  11  -0.17072     0.01557    -0.01526     0.02250    -0.15728    -0.19885
 PY  C  11  -0.04472    -0.13156     0.06471    -0.03339     0.16153    -0.11962
 PZ  C  11   0.02902     0.00465     0.00923     0.13460     0.10092    -0.02390
  
  S  H  12  -0.04967     0.09300    -0.06336     0.02808    -0.22896     0.03959
  
  S  C  13   0.06056     0.05158     0.00331    -0.00267     0.05097    -0.03511
 PX  C  13   0.10676     0.07922     0.04086     0.00240     0.11743     0.20095
 PY  C  13  -0.09590     0.11848    -0.01151     0.00226    -0.18926     0.18775
 PZ  C  13   0.02103     0.01201    -0.02508     0.16510    -0.09524     0.01397
  
  S  H  14  -0.08399     0.05644     0.20446     0.01494    -0.15827     0.03636
  
  S  H  15   0.02019     0.27127    -0.09251    -0.01333    -0.00806    -0.13505
  
  S  H  16   0.12805    -0.13446     0.20736     0.00266    -0.05741     0.00945
  
  S  H  17   0.13760    -0.14926     0.21219     0.01896    -0.05283     0.00148
  
  S  H  18  -0.24620    -0.07081    -0.13647    -0.00829     0.04209     0.14681
  
  S  H  19  -0.09013     0.05511     0.16376     0.01170    -0.15727     0.02215
  
  S  H  20  -0.09533     0.08708    -0.02969     0.01060    -0.23081     0.05911
  
  S  C  21   0.00869    -0.02559     0.01412    -0.01000     0.04011     0.02470
 PX  C  21  -0.10897    -0.20810    -0.13319     0.01472    -0.18077    -0.15736
 PY  C  21  -0.19364     0.01356     0.10766     0.02977     0.10366    -0.06363
 PZ  C  21   0.01066     0.01553     0.00564    -0.26316     0.01946    -0.00223
  
  S  C  22   0.01859    -0.00405    -0.01167    -0.01100    -0.00790    -0.01138
 PX  C  22   0.02960     0.25962     0.11773    -0.02604     0.10652     0.10225
 PY  C  22   0.25267    -0.05335    -0.13316    -0.01711    -0.10721     0.07220
 PZ  C  22   0.01191     0.00471    -0.01122    -0.33312    -0.02568     0.00311
  
  S  C  23   0.00252    -0.02428    -0.01460     0.01932    -0.00886     0.01005
 PX  C  23  -0.06950    -0.24360    -0.08274     0.01942    -0.08304    -0.12677
 PY  C  23  -0.25107     0.08384     0.15294     0.00216     0.12281    -0.04638
 PZ  C  23   0.02636     0.00055    -0.03334    -0.31737    -0.08119     0.01711
  
  S  C  24   0.01566    -0.00303     0.01949    -0.01797     0.03454    -0.03932
 PX  C  24   0.08894     0.22982     0.04838    -0.01333     0.04601     0.15287
 PY  C  24   0.23795     0.00564    -0.15733     0.02751    -0.14636     0.12440
 PZ  C  24   0.04703     0.00617    -0.04631    -0.23446    -0.10498     0.02845
  
  S  H  25   0.11925    -0.11963    -0.15566    -0.00181    -0.17348    -0.00517
  
  S  H  26   0.05047     0.25222     0.10875    -0.01624     0.10177     0.10816
  
  S  H  27  -0.23984    -0.06608     0.07776     0.00468     0.05101    -0.10347
  
  S  H  28   0.16025    -0.11091    -0.15619     0.02106    -0.15232     0.01283
  
  S  C  29   0.01380     0.04514     0.00485    -0.00272    -0.00050    -0.01284
 PX  C  29   0.08591     0.18696     0.14637    -0.00883     0.20743     0.16299
 PY  C  29   0.11681     0.06330    -0.14238     0.01707    -0.23241     0.14134
 PZ  C  29   0.04368     0.02496     0.00282    -0.07235     0.04707     0.00341
  
  S  C  30  -0.03065    -0.02219    -0.01567     0.00256    -0.00219     0.01135
 PX  C  30  -0.15895    -0.09506    -0.04826     0.00721    -0.16342    -0.17323
 PY  C  30  -0.18879    -0.05234     0.18911    -0.01767     0.25823    -0.12689
 PZ  C  30   0.04062     0.01429    -0.02973    -0.04759    -0.07804     0.01479




    ROOT NO.   37          38          39          40          41          42

           -10.76053    -9.87975    -9.77484    -8.40586    -7.97706    -6.83341
  
  
  S  C   1   0.00139    -0.00118     0.00064     0.00065     0.00348    -0.00016
 PX  C   1  -0.01726     0.02989    -0.02674    -0.03126    -0.02285     0.02350
 PY  C   1   0.01026     0.02839     0.00081    -0.00915    -0.01924     0.00980
 PZ  C   1   0.10250    -0.33191     0.16210     0.23386     0.27076    -0.19416
  
  S  C   2   0.01200    -0.00870     0.02614     0.03147     0.00066    -0.02321
 PX  C   2   0.00287    -0.00787     0.00977     0.00990     0.00570    -0.00597
 PY  C   2  -0.03870     0.00207    -0.03191    -0.02431     0.00321     0.01438
 PZ  C   2   0.21558    -0.11060     0.32075     0.35477     0.01367    -0.24833
  
  S  C   3  -0.00575    -0.00835    -0.00848    -0.00284     0.00791    -0.00343
 PX  C   3  -0.01374    -0.00463    -0.00932     0.00129    -0.00105    -0.00700
 PY  C   3   0.04164     0.00698     0.02065     0.00831    -0.00704    -0.00283
 PZ  C   3   0.24234     0.26152     0.24582     0.04597    -0.33982     0.13188
  
  S  C   4   0.00529    -0.00315     0.00581     0.00249     0.00832     0.00151
 PX  C   4   0.01208     0.01828     0.00671     0.00406    -0.00354    -0.00348
 PY  C   4  -0.03745     0.00010    -0.01591    -0.00290     0.00965    -0.00130
 PZ  C   4  -0.22654     0.25478    -0.21509    -0.05803    -0.34662    -0.15350
  
  S  C   5  -0.00782    -0.00730    -0.00654    -0.00576    -0.00090     0.00335
 PX  C   5  -0.01006    -0.01507    -0.00794    -0.00478     0.00088     0.00193
 PY  C   5   0.02428     0.00912     0.02315     0.01696     0.00029    -0.00909
 PZ  C   5  -0.20682    -0.13438    -0.31540    -0.34250    -0.02762     0.23710
  
  S  C   6  -0.00012     0.00555     0.00014     0.00194    -0.00307    -0.00307
 PX  C   6   0.01350     0.02770     0.01901     0.02028    -0.01482    -0.01691
 PY  C   6  -0.01293     0.00945    -0.00321     0.00676    -0.00554    -0.01016
 PZ  C   6  -0.09758    -0.34763    -0.17633    -0.21503     0.24382     0.20789
  
  S  C   7   0.00234     0.01495     0.00996    -0.01174    -0.00165     0.02178
 PX  C   7   0.00963     0.00380     0.01091    -0.00031     0.00605     0.00395
 PY  C   7  -0.04804    -0.01060    -0.01042     0.00733     0.00529    -0.01361
 PZ  C   7   0.34775     0.21877     0.19846    -0.20032    -0.01534     0.37972
  
  S  C   8  -0.00458    -0.00476     0.00503    -0.00526    -0.00398     0.01151
 PX  C   8  -0.00939    -0.01417     0.01043    -0.00050    -0.00182     0.00893
 PY  C   8   0.04964    -0.02194     0.01876    -0.00788     0.00146     0.01949
 PZ  C   8  -0.33781     0.22022    -0.18534     0.18881     0.00481    -0.36490
  
  S  C   9  -0.00590    -0.00278    -0.00071     0.00562     0.01721    -0.00098
 PX  C   9   0.02500     0.00820    -0.00723    -0.00519     0.00008    -0.00299
 PY  C   9  -0.05679     0.01022     0.00789     0.00022    -0.01301     0.00139
 PZ  C   9  -0.25418     0.01043     0.00788     0.22001     0.37039     0.00901
  
  S  C  10  -0.01960     0.00121     0.00260     0.01298    -0.01409     0.00081
 PX  C  10  -0.03709     0.01048     0.01222     0.00788    -0.00134     0.00963
 PY  C  10   0.05511    -0.00136    -0.00545    -0.00146    -0.01391     0.00011
 PZ  C  10   0.27846     0.00380    -0.01739    -0.23069     0.37102     0.02758
  
  S  C  11   0.01560    -0.01546    -0.01184    -0.02081     0.00202    -0.02807
 PX  C  11   0.02505    -0.00744    -0.00757    -0.00494    -0.00418    -0.00623
 PY  C  11  -0.08000     0.02821     0.03963     0.02137    -0.00133     0.03216
 PZ  C  11   0.32143    -0.20645    -0.22005    -0.22350     0.01090    -0.35769
  
  S  H  12   0.05171    -0.01016    -0.01677     0.00377    -0.00392     0.00812
  
  S  C  13  -0.01027     0.00469     0.00103    -0.00519    -0.00388    -0.00603
 PX  C  13  -0.03145    -0.02318     0.02631     0.00843     0.00055     0.01840
 PY  C  13   0.05356     0.00019    -0.01603    -0.00724     0.00417    -0.01125
 PZ  C  13  -0.29354    -0.22898     0.22166     0.22426    -0.01338     0.36567
  
  S  H  14   0.03133     0.00246     0.00441     0.00437    -0.00214    -0.00879
  
  S  H  15  -0.01018    -0.00746    -0.00382    -0.00045     0.00305     0.00007
  
  S  H  16   0.01599     0.00652     0.00358    -0.00856    -0.00473     0.01112
  
  S  H  17   0.02041     0.00986     0.01447     0.00594    -0.00287    -0.00072
  
  S  H  18  -0.00893    -0.00767    -0.01146    -0.01120     0.00079     0.00802
  
  S  H  19   0.03385    -0.00162     0.00332     0.00197    -0.00099    -0.00486
  
  S  H  20   0.04809    -0.00043    -0.01619     0.00118    -0.00119     0.00045
  
  S  C  21  -0.00292     0.00441    -0.00946     0.01601    -0.00167     0.01124
 PX  C  21   0.03185    -0.00687    -0.01536    -0.00216    -0.00678    -0.00537
 PY  C  21  -0.03435    -0.01322     0.03434    -0.02352    -0.00137    -0.01222
 PZ  C  21   0.15906     0.15139    -0.34512     0.34760    -0.00564     0.21013
  
  S  C  22   0.00215     0.01551    -0.00565     0.00615     0.01348     0.00578
 PX  C  22  -0.01360     0.01059     0.00306     0.00481     0.00471     0.00577
 PY  C  22   0.02788     0.01168    -0.02135     0.01127     0.00706     0.00529
 PZ  C  22   0.06277     0.34967    -0.18869     0.22455     0.23870     0.19729
  
  S  C  23   0.00894    -0.02217    -0.01363     0.01776    -0.01631     0.01286
 PX  C  23   0.01410    -0.00568    -0.01025     0.00159    -0.00781    -0.00126
 PY  C  23  -0.02607     0.00019     0.01421    -0.00339    -0.00063     0.00112
 PZ  C  23  -0.10795     0.32116     0.20634    -0.25995     0.24847    -0.18542
  
  S  C  24  -0.01994     0.01036     0.01872    -0.01239    -0.00101    -0.00519
 PX  C  24  -0.00276     0.00110     0.00505    -0.00324     0.00761    -0.00300
 PY  C  24   0.04763    -0.01396    -0.03156     0.01306     0.00445     0.00293
 PZ  C  24  -0.18442     0.10296     0.35372    -0.35308     0.00677    -0.21406
  
  S  H  25   0.03545    -0.00249    -0.01548    -0.00364    -0.00300    -0.00723
  
  S  H  26  -0.01581     0.00081     0.01152    -0.00634    -0.00161    -0.00428
  
  S  H  27  -0.01763     0.00542     0.01464    -0.01310     0.00333    -0.00880
  
  S  H  28   0.03796    -0.00824    -0.02289     0.00560    -0.00157    -0.00072
  
  S  C  29  -0.00385     0.00109     0.00347     0.00146    -0.00280     0.00403
 PX  C  29  -0.04188     0.01114     0.02605    -0.00531     0.01750     0.00362
 PY  C  29   0.07049    -0.01579    -0.03402    -0.00349    -0.00606    -0.01116
 PZ  C  29   0.20235    -0.25361    -0.24593     0.04002    -0.33595    -0.17226
  
  S  C  30   0.01720     0.00923    -0.01720     0.00152     0.01921    -0.00712
 PX  C  30   0.03495     0.01149    -0.02389    -0.00113    -0.00040    -0.00779
 PY  C  30  -0.06419     0.01583     0.02603     0.00119     0.00467     0.00433
 PZ  C  30  -0.19015    -0.28490     0.24789    -0.01271    -0.34579     0.14249




    ROOT NO.   43          44          45          46          47          48

            -0.91219     0.16335     0.36538     1.30586     1.38941     1.89446
  
  
  S  C   1   0.01194    -0.00683    -0.02138     0.02948    -0.01193    -0.02942
 PX  C   1  -0.00817     0.02006     0.00411    -0.00226     0.01979    -0.00632
 PY  C   1  -0.01337     0.01654     0.01522    -0.01582     0.01743     0.00584
 PZ  C   1   0.21009    -0.27360    -0.23266     0.23670    -0.29333    -0.08864
  
  S  C   2  -0.02772     0.00759     0.04806    -0.06193     0.01475     0.05851
 PX  C   2   0.00212    -0.00154    -0.00038    -0.00194    -0.00161     0.00703
 PY  C   2   0.01764     0.00009    -0.02417     0.02195     0.00132    -0.00498
 PZ  C   2  -0.24860     0.03007     0.35114    -0.34014     0.03875     0.18662
  
  S  C   3   0.00379    -0.01429    -0.01420     0.03312    -0.01466    -0.05625
 PX  C   3  -0.01126     0.00361     0.01078    -0.01059     0.00997     0.00046
 PY  C   3  -0.01105    -0.00014     0.01373    -0.01261    -0.00072     0.00432
 PZ  C   3  -0.13094     0.33484    -0.07505     0.21271     0.31599    -0.23839
  
  S  C   4   0.00999     0.01468     0.00002    -0.02026     0.01833     0.04136
 PX  C   4  -0.00084     0.00038     0.00521    -0.00738    -0.00293     0.01107
 PY  C   4   0.00738     0.00551    -0.00226     0.00041     0.00401    -0.00482
 PZ  C   4  -0.15686    -0.34600    -0.04938     0.28563    -0.21694    -0.20273
  
  S  C   5  -0.00906    -0.00484     0.00843     0.00054    -0.01285    -0.01559
 PX  C   5  -0.00241    -0.00329    -0.00158     0.00628    -0.00088    -0.01165
 PY  C   5   0.01140    -0.00071    -0.01528     0.01138     0.01050    -0.00660
 PZ  C   5  -0.24291     0.03872     0.34195    -0.28661    -0.19105     0.17596
  
  S  C   6  -0.00178     0.00145     0.00366    -0.00771     0.00776     0.01330
 PX  C   6  -0.01137    -0.01138     0.01287    -0.00795    -0.01741     0.00871
 PY  C   6  -0.00209    -0.01159     0.00018     0.00516    -0.01623    -0.00131
 PZ  C   6   0.21070     0.22709    -0.22009     0.09478     0.37582    -0.07844
  
  S  C   7   0.01882    -0.00083    -0.00131    -0.02037    -0.01068     0.05552
 PX  C   7   0.00991    -0.00910    -0.00506     0.00604    -0.01011    -0.00052
 PY  C   7  -0.01297    -0.00400     0.01204     0.01108     0.00956    -0.01860
 PZ  C   7   0.37718    -0.02501    -0.18712    -0.18149    -0.24091     0.33423
  
  S  C   8  -0.01058    -0.00977     0.00159     0.01330    -0.01775    -0.03387
 PX  C   8  -0.00229    -0.00278    -0.00158    -0.00296     0.00049     0.00070
 PY  C   8  -0.01693     0.00414     0.00944     0.00710    -0.00362    -0.00940
 PZ  C   8   0.35862    -0.01665    -0.18067    -0.25020     0.17359     0.32092
  
  S  C   9   0.00056     0.01461     0.00841     0.00359     0.00588     0.01527
 PX  C   9  -0.00470    -0.00300     0.00338     0.00720    -0.00427     0.00069
 PY  C   9  -0.00009    -0.00469    -0.00863     0.00405    -0.00298     0.01024
 PZ  C   9   0.01047     0.38103     0.20365     0.01501    -0.00128    -0.27477
  
  S  C  10   0.00403     0.01340    -0.01242    -0.00086    -0.00511    -0.02786
 PX  C  10   0.00798     0.00511     0.00441    -0.01144    -0.00683    -0.01017
 PY  C  10   0.00230     0.00546    -0.01144    -0.00672    -0.00224     0.02177
 PZ  C  10  -0.02807    -0.35852     0.25819     0.00013    -0.01488    -0.28529
  
  S  C  11  -0.03122    -0.00429    -0.01335     0.02645     0.03024     0.07773
 PX  C  11  -0.00059     0.00643    -0.00750     0.01025     0.00125     0.01453
 PY  C  11   0.03104     0.00383     0.02214    -0.00793    -0.02473    -0.02493
 PZ  C  11  -0.34502    -0.00924    -0.21585     0.15245     0.24611     0.32425
  
  S  H  12   0.01804     0.00280     0.01259    -0.01772    -0.02381    -0.05247
  
  S  C  13   0.00666    -0.01446    -0.00017    -0.02036     0.00977    -0.03747
 PX  C  13  -0.01124    -0.00377    -0.00742    -0.00303    -0.00005    -0.00351
 PY  C  13   0.01199     0.00413     0.00965    -0.00772     0.00743    -0.01207
 PZ  C  13  -0.36041     0.01305    -0.21908     0.24072    -0.16690     0.33014
  
  S  H  14  -0.01276     0.00076     0.00478     0.01264     0.01087    -0.03573
  
  S  H  15  -0.00438     0.00463     0.01041    -0.01679     0.00816     0.01864
  
  S  H  16   0.01340    -0.00239    -0.02863     0.04102    -0.00735    -0.03793
  
  S  H  17   0.00244     0.00239    -0.00278    -0.00100     0.00566     0.00896
  
  S  H  18  -0.00017     0.00045    -0.00093     0.00364    -0.00513    -0.00776
  
  S  H  19   0.00259     0.00318    -0.00091    -0.00980     0.01129     0.02315
  
  S  H  20  -0.00214     0.00621    -0.00104     0.01104    -0.00867     0.02354
  
  S  C  21   0.01314     0.00486     0.02951     0.04581    -0.01134     0.05230
 PX  C  21   0.00713     0.00140     0.00495    -0.00207    -0.00327    -0.01595
 PY  C  21  -0.00746     0.00155    -0.01319    -0.01312     0.00071    -0.00708
 PZ  C  21   0.21131     0.01413     0.34562     0.34948    -0.07534     0.18751
  
  S  C  22  -0.01827    -0.00961    -0.02901    -0.03708     0.01269    -0.03500
 PX  C  22  -0.00146    -0.00775     0.00124     0.00097     0.01029     0.00563
 PY  C  22  -0.00401     0.00123    -0.00290     0.00097    -0.00581     0.00367
 PZ  C  22  -0.20920    -0.24891    -0.22390    -0.24883     0.30062    -0.08941
  
  S  C  23   0.01387    -0.01288     0.02314     0.02202     0.02054     0.02637
 PX  C  23   0.01039    -0.00298     0.01405     0.00859     0.00528     0.00125
 PY  C  23  -0.00197    -0.00775    -0.00360    -0.00843     0.01184    -0.00665
 PZ  C  23  -0.18281     0.24562    -0.25843    -0.11612    -0.36538    -0.09428
  
  S  C  24   0.01220    -0.00548     0.01152    -0.00700     0.00365    -0.02745
 PX  C  24  -0.00778     0.00928    -0.00802     0.00124    -0.00934     0.00583
 PY  C  24  -0.01391     0.00814    -0.01266     0.00304    -0.00848     0.01219
 PZ  C  24   0.22252    -0.01020     0.35733     0.30722     0.19536     0.19588
  
  S  H  25  -0.00648    -0.00107    -0.01829    -0.02971     0.00571    -0.03098
  
  S  H  26   0.00686     0.00769     0.01269     0.02021    -0.01049     0.02157
  
  S  H  27  -0.00611     0.00853    -0.01277    -0.01297    -0.01452    -0.01612
  
  S  H  28  -0.00506     0.00290    -0.00615     0.00228    -0.00235     0.01450
  
  S  C  29   0.01040    -0.00707    -0.00330    -0.03845    -0.00225    -0.07498
 PX  C  29  -0.01751    -0.00903    -0.00921     0.00179     0.01508     0.01422
 PY  C  29  -0.00546    -0.00655    -0.00412    -0.00577     0.01434     0.00137
 PZ  C  29   0.17138     0.34454    -0.05789    -0.17780    -0.30093    -0.21828
  
  S  C  30  -0.01731     0.02470    -0.00402     0.03894    -0.01264     0.06426
 PX  C  30  -0.00003     0.00121    -0.00049     0.00457     0.00024     0.00835
 PY  C  30  -0.00008     0.00544    -0.00302    -0.00645    -0.00874    -0.01400
 PZ  C  30   0.13751    -0.34489    -0.01198    -0.29706     0.21049    -0.22001




    ROOT NO.   49          50          51          52          53          54

             2.38854     2.49457     2.83505     3.11805     3.33452     3.40520
  
  
  S  C   1  -0.09235     0.09298    -0.17439    -0.03041    -0.23771    -0.05959
 PX  C   1  -0.00154     0.02796    -0.01822     0.01423     0.02115    -0.05896
 PY  C   1   0.01134     0.02297    -0.01976     0.01636    -0.04256     0.06180
 PZ  C   1  -0.27590    -0.15651    -0.00033    -0.23605     0.05747    -0.02982
  
  S  C   2   0.13381    -0.13832     0.21920     0.01662     0.16345     0.15184
 PX  C   2   0.00932    -0.03009     0.00920    -0.02304    -0.06269     0.03151
 PY  C   2   0.01602    -0.06728     0.05242    -0.04384     0.00655     0.02851
 PZ  C   2   0.17266     0.14046    -0.01820     0.24116    -0.07115     0.02213
  
  S  C   3  -0.14814     0.25337    -0.27328     0.07271    -0.06572    -0.15508
 PX  C   3   0.01224     0.01113     0.05598     0.00651     0.11560    -0.08989
 PY  C   3  -0.00101     0.04229    -0.01983     0.03851     0.01543     0.10550
 PZ  C   3  -0.04692    -0.03202    -0.05618    -0.29248     0.02722    -0.08519
  
  S  C   4   0.12264    -0.24043     0.24802    -0.07857     0.09230    -0.17223
 PX  C   4   0.00845    -0.03144    -0.00854    -0.01172    -0.07852     0.05510
 PY  C   4  -0.02888     0.03235    -0.08071     0.00562    -0.06000    -0.11882
 PZ  C   4   0.09242    -0.03736     0.08814     0.30067    -0.01813     0.09815
  
  S  C   5  -0.08896     0.15627    -0.19890     0.02976    -0.18624     0.19969
 PX  C   5  -0.02203     0.05988    -0.04199     0.02701     0.02707     0.03221
 PY  C   5   0.01921     0.00061     0.01919     0.02145     0.04384    -0.00110
 PZ  C   5  -0.25351    -0.07403    -0.04787    -0.26200     0.03769    -0.07625
  
  S  C   6   0.07162    -0.09784     0.16237     0.01329     0.24867    -0.13893
 PX  C   6  -0.00005    -0.02948     0.02709    -0.01423     0.02019     0.00479
 PY  C   6  -0.01639    -0.01985    -0.00491    -0.02645    -0.03134    -0.07286
 PZ  C   6   0.31637     0.12770     0.03112     0.24756    -0.04005     0.04922
  
  S  C   7   0.11521    -0.24735     0.13605    -0.05922    -0.18224     0.24322
 PX  C   7  -0.01771     0.01322    -0.08497     0.01123    -0.10969     0.00952
 PY  C   7   0.01998    -0.02147    -0.03673    -0.00989    -0.06599    -0.00107
 PZ  C   7  -0.14682    -0.01277     0.02698     0.14628     0.01171     0.06309
  
  S  C   8  -0.09126     0.21044    -0.09191     0.05444     0.13118     0.24726
 PX  C   8   0.00326     0.02795     0.06893    -0.01381     0.12036     0.02541
 PY  C   8   0.01771    -0.04317     0.06614    -0.00878     0.05168    -0.00352
 PZ  C   8   0.10406     0.13203    -0.05817    -0.14795    -0.00405    -0.09620
  
  S  C   9   0.07913    -0.24460    -0.03179    -0.01555    -0.32685    -0.21025
 PX  C   9   0.00342    -0.01820    -0.06407     0.02047    -0.05105     0.05343
 PY  C   9  -0.00984     0.02780    -0.03991     0.03826     0.08074    -0.13468
 PZ  C   9  -0.28094    -0.17561     0.01475    -0.00124     0.05582     0.13025
  
  S  C  10  -0.11181     0.23873     0.01971     0.05119     0.34398    -0.15668
 PX  C  10   0.00976    -0.02469     0.07214    -0.00319    -0.06014    -0.06520
 PY  C  10  -0.00242     0.00589     0.05437    -0.01174     0.05626     0.13999
 PZ  C  10   0.30391     0.11473    -0.02547     0.01645    -0.01235    -0.10844
  
  S  C  11   0.07863    -0.20881    -0.15879    -0.03406    -0.12479     0.21876
 PX  C  11  -0.01941     0.02538    -0.06512     0.01867     0.13058    -0.00040
 PY  C  11   0.02916    -0.02860    -0.06038     0.03046     0.02976     0.00931
 PZ  C  11  -0.15411     0.01393     0.01562    -0.15799     0.04732     0.03610
  
  S  H  12  -0.03219     0.11601     0.10352     0.02033     0.07622    -0.09239
  
  S  C  13  -0.07016     0.20966     0.14467    -0.06953     0.13883     0.26735
 PX  C  13  -0.00076     0.01380     0.08388    -0.03642    -0.09660     0.00554
 PY  C  13   0.00708    -0.04511     0.01294    -0.02022    -0.06877    -0.02148
 PZ  C  13   0.09735     0.11450     0.06055     0.14460    -0.04010    -0.06646
  
  S  H  14  -0.06375     0.15521    -0.09674     0.03806     0.13603    -0.13272
  
  S  H  15   0.06035    -0.06334     0.11328     0.01746     0.14946     0.05770
  
  S  H  16  -0.07962     0.07269    -0.13339    -0.02050    -0.11253    -0.07092
  
  S  H  17   0.05129    -0.08961     0.12520    -0.01960     0.12577    -0.09848
  
  S  H  18  -0.04644     0.06206    -0.10155    -0.01056    -0.15692     0.10469
  
  S  H  19   0.05463    -0.11563     0.05848    -0.04130    -0.09349    -0.11708
  
  S  H  20   0.04299    -0.11383    -0.08343     0.03954    -0.09794    -0.12255
  
  S  C  21   0.09357    -0.12502    -0.23709    -0.00336     0.16300     0.22372
 PX  C  21  -0.02004     0.06272     0.05608    -0.01525     0.02667    -0.03151
 PY  C  21  -0.00404    -0.01292    -0.02259     0.01668     0.04150     0.01084
 PZ  C  21   0.20614     0.15586    -0.01130    -0.25527    -0.00395    -0.01921
  
  S  C  22  -0.06993     0.08434     0.20043    -0.00389    -0.22028    -0.16622
 PX  C  22   0.00093    -0.02715    -0.03362     0.01764     0.02164    -0.00844
 PY  C  22   0.01680    -0.00599    -0.00523    -0.02277    -0.02819     0.07453
 PZ  C  22  -0.28257    -0.16503     0.02371     0.23394     0.01058     0.02428
  
  S  C  23   0.02202    -0.09981    -0.18264     0.07195     0.20535    -0.05843
 PX  C  23  -0.00959     0.02747     0.03044    -0.01961     0.00707     0.08920
 PY  C  23  -0.02378     0.01116     0.04206     0.01135    -0.04725    -0.05636
 PZ  C  23   0.30526     0.11241    -0.08439    -0.22025     0.03543    -0.00108
  
  S  C  24  -0.05149     0.14908     0.24105    -0.09675    -0.16425     0.19354
 PX  C  24   0.01336    -0.02603    -0.02022     0.00865    -0.03678    -0.04993
 PY  C  24   0.02166    -0.04570    -0.05574     0.01715    -0.00129    -0.04502
 PZ  C  24  -0.24212    -0.07479     0.07936     0.24217    -0.02357    -0.02814
  
  S  H  25  -0.05190     0.06393     0.13787     0.00075    -0.10729    -0.10926
  
  S  H  26   0.04765    -0.05475    -0.12775    -0.00281     0.13700     0.12111
  
  S  H  27  -0.00943     0.06171     0.10600    -0.04844    -0.11892     0.04776
  
  S  H  28   0.03200    -0.08435    -0.15154     0.05412     0.11763    -0.09429
  
  S  C  29  -0.09690     0.21607     0.28940    -0.03690    -0.07345    -0.16587
 PX  C  29  -0.00165    -0.03441     0.00435     0.01129    -0.06522    -0.07598
 PY  C  29  -0.00397     0.01400     0.06122    -0.05667    -0.06261     0.13525
 PZ  C  29  -0.04931    -0.07311     0.04494     0.30657    -0.03891    -0.02875
  
  S  C  30   0.07347    -0.21848    -0.28361     0.12035     0.07237    -0.20676
 PX  C  30   0.00248     0.00269    -0.05875     0.00782     0.09173     0.08295
 PY  C  30  -0.01363     0.02512     0.02043     0.02350     0.02698    -0.11229
 PZ  C  30   0.08841    -0.02732    -0.12201    -0.28333     0.05351     0.03040




    ROOT NO.   55          56          57          58          59          60

             3.59351     3.66105     3.72825     3.90696     4.16013     4.26866
  
  
  S  C   1  -0.26533     0.27460     0.10249     0.17948    -0.07458     0.05877
 PX  C   1   0.07584    -0.03811    -0.05553     0.07354    -0.11633     0.04041
 PY  C   1  -0.04503     0.02503     0.03385    -0.07800     0.05229    -0.04084
 PZ  C   1  -0.05008    -0.11341    -0.00906    -0.04220     0.02069    -0.01149
  
  S  C   2   0.01562    -0.07995     0.06959    -0.25065     0.29690    -0.11524
 PX  C   2  -0.14622     0.11557     0.08151     0.01594     0.02029     0.00234
 PY  C   2  -0.07448     0.02125     0.03877     0.00245    -0.03885     0.01490
 PZ  C   2   0.07535     0.14004    -0.00144     0.07600    -0.07202     0.02762
  
  S  C   3   0.24461    -0.10708    -0.17625     0.11817    -0.02984     0.05210
 PX  C   3  -0.00071     0.02926     0.04317     0.04413     0.18951    -0.01148
 PY  C   3   0.07851    -0.09486    -0.01912    -0.16210     0.07460    -0.05996
 PZ  C   3  -0.15273    -0.20779    -0.02049    -0.03917     0.00925    -0.00498
  
  S  C   4  -0.19750     0.20730     0.11419     0.20626     0.03093     0.04201
 PX  C   4  -0.07226     0.04024     0.03224    -0.10806     0.16194    -0.05172
 PY  C   4   0.07837    -0.01074    -0.08755     0.07976     0.07958     0.03328
 PZ  C   4   0.15542     0.21652     0.02826     0.03055     0.00675     0.00119
  
  S  C   5  -0.05717    -0.01284     0.03090    -0.27607     0.27652    -0.11042
 PX  C   5   0.12567    -0.11314    -0.07122    -0.02766    -0.04967     0.02225
 PY  C   5   0.07808    -0.05950    -0.03567    -0.02415     0.02605    -0.00725
 PZ  C   5  -0.08059    -0.12720    -0.01876    -0.00514    -0.00703     0.00331
  
  S  C   6   0.28634    -0.20691    -0.15013     0.10834    -0.11776     0.06693
 PX  C   6  -0.00540    -0.00983     0.00663    -0.01714    -0.01483    -0.01211
 PY  C   6  -0.07257     0.09046     0.02251     0.13421    -0.10472     0.05214
 PZ  C   6   0.06112     0.10264     0.01088     0.02126    -0.01326     0.00424
  
  S  C   7  -0.11470     0.00042    -0.02367    -0.15867    -0.33610    -0.01729
 PX  C   7   0.08458    -0.05243    -0.10123     0.02261    -0.09276     0.03942
 PY  C   7   0.04041    -0.04842    -0.06777     0.03487     0.09595     0.03443
 PZ  C   7   0.17111     0.17954     0.01374     0.02718     0.03018    -0.00384
  
  S  C   8   0.02587    -0.14040     0.09514    -0.14961    -0.33332    -0.05050
 PX  C   8  -0.08527     0.03981     0.09334     0.07538     0.00460     0.04221
 PY  C   8  -0.05075     0.05268     0.05425     0.03893    -0.06286     0.00714
 PZ  C   8  -0.16950    -0.20133    -0.02425    -0.01439    -0.01802     0.00292
  
  S  C   9   0.13823     0.01710    -0.24698    -0.01179     0.11253    -0.08213
 PX  C   9   0.03647    -0.06126    -0.00126    -0.08470    -0.13222    -0.05635
 PY  C   9  -0.01017     0.02712     0.08374    -0.01159     0.00272    -0.16834
 PZ  C   9   0.22603     0.24563     0.05547    -0.00305    -0.01002    -0.01702
  
  S  C  10  -0.08636     0.10985     0.21488     0.04961     0.04276    -0.12581
 PX  C  10  -0.01939     0.04246    -0.07728    -0.08443    -0.05845    -0.12373
 PY  C  10  -0.06777    -0.00013     0.07451    -0.05563    -0.15673     0.02676
 PZ  C  10  -0.23643    -0.23786    -0.00710     0.00861     0.00370     0.01840
  
  S  C  11   0.10616    -0.13825     0.08435     0.12307     0.10028     0.33589
 PX  C  11  -0.01195     0.00748     0.14002     0.08687     0.01642    -0.00072
 PY  C  11  -0.02151    -0.04281     0.04244     0.04658     0.00043    -0.08441
 PZ  C  11   0.16422     0.20076     0.00722    -0.03693    -0.02804    -0.08091
  
  S  H  12  -0.09444     0.07213    -0.07760    -0.07039    -0.10021    -0.30286
  
  S  C  13  -0.09173     0.01884    -0.04054     0.08190     0.08305     0.37038
 PX  C  13   0.01421     0.01420    -0.15017     0.03591     0.02400    -0.04079
 PY  C  13   0.03677     0.01691    -0.07438     0.02290     0.04192     0.06678
 PZ  C  13  -0.18197    -0.17323    -0.04509     0.01747     0.01382     0.03433
  
  S  H  14   0.08889    -0.02952     0.02632     0.11009     0.34912     0.04007
  
  S  H  15   0.16964    -0.18784    -0.06641    -0.13599     0.01275    -0.04403
  
  S  H  16  -0.01312     0.03318    -0.05127     0.15155    -0.25777     0.08343
  
  S  H  17   0.03161    -0.00178    -0.01229     0.17321    -0.24135     0.07950
  
  S  H  18  -0.18593     0.12432     0.09908    -0.08327     0.04113    -0.04804
  
  S  H  19  -0.02937     0.08452    -0.06439     0.08868     0.29628     0.06384
  
  S  H  20   0.05530    -0.03873     0.02797    -0.04136    -0.09381    -0.32308
  
  S  C  21  -0.07119    -0.02026    -0.10211     0.27013     0.03421    -0.25263
 PX  C  21  -0.04062     0.08356    -0.17860    -0.04558     0.00451    -0.03890
 PY  C  21  -0.03919     0.03168    -0.08727    -0.02605     0.00146     0.04015
 PZ  C  21   0.12576     0.10825     0.03994    -0.06173    -0.01379     0.02172
  
  S  C  22   0.14624    -0.11450     0.36476    -0.08256    -0.03139     0.06713
 PX  C  22  -0.01210     0.00588    -0.00602    -0.01725    -0.01050    -0.01572
 PY  C  22   0.02901    -0.06353     0.07538     0.14223     0.01915    -0.11427
 PZ  C  22  -0.10459    -0.07335    -0.05332     0.04442     0.01156    -0.00951
  
  S  C  23  -0.13632     0.16792    -0.29622    -0.20208    -0.02837     0.10524
 PX  C  23  -0.02813     0.00028    -0.10479     0.10196     0.01951    -0.10226
 PY  C  23   0.02939    -0.02064     0.08504    -0.05251    -0.01611     0.03641
 PZ  C  23   0.07457     0.09367    -0.00931    -0.04126    -0.00901     0.00463
  
  S  C  24   0.04477    -0.10393    -0.03430     0.30621     0.05008    -0.25951
 PX  C  24   0.05024    -0.04789     0.15991     0.00537    -0.00351    -0.00292
 PY  C  24   0.02546    -0.02572     0.09549     0.02846     0.00335    -0.08060
 PZ  C  24  -0.10901    -0.09762    -0.01608     0.00814     0.00550     0.02186
  
  S  H  25   0.04664    -0.00198     0.07376    -0.16654    -0.01417     0.23011
  
  S  H  26  -0.08936     0.06755    -0.22642     0.05994     0.02867    -0.00312
  
  S  H  27   0.08294    -0.10213     0.18238     0.12471     0.02295    -0.02885
  
  S  H  28  -0.03378     0.06773     0.02332    -0.20726    -0.02912     0.24660
  
  S  C  29  -0.03649     0.14785    -0.27385    -0.21154    -0.03525    -0.00838
 PX  C  29   0.05184    -0.02235     0.11180    -0.10182    -0.01087     0.12869
 PY  C  29   0.01781    -0.01812    -0.08418     0.07341     0.05307     0.13395
 PZ  C  29  -0.19248    -0.19404    -0.03173     0.04645     0.02072     0.03663
  
  S  C  30   0.04138    -0.04482     0.30777    -0.09955    -0.05297    -0.07137
 PX  C  30  -0.03119    -0.00768     0.05051     0.00325     0.02120     0.18143
 PY  C  30  -0.03246     0.07723    -0.08150    -0.17720    -0.03381     0.07836
 PZ  C  30   0.19692     0.17864     0.07092    -0.03921    -0.01906    -0.03217




    ROOT NO.   61          62          63          64          65          66

             5.19560     5.30366     5.55922     5.63526     6.11515     6.31648
  
  
  S  C   1  -0.09504    -0.27601    -0.01704     0.08840    -0.05478    -0.01207
 PX  C   1   0.11197     0.10532     0.02490    -0.13328     0.12924     0.05476
 PY  C   1  -0.00176     0.30213     0.00019    -0.01364     0.01772     0.00238
 PZ  C   1   0.00281     0.03101     0.00090    -0.00509     0.00417     0.00055
  
  S  C   2  -0.14939    -0.10560    -0.02868     0.16036    -0.15379    -0.07377
 PX  C   2  -0.09091    -0.19511    -0.01550     0.08347    -0.05533    -0.01527
 PY  C   2   0.03338     0.06713     0.01506    -0.10085     0.20193     0.13201
 PZ  C   2   0.03054     0.02695     0.00617    -0.03617     0.04345     0.02463
  
  S  C   3   0.05536     0.03558    -0.00727     0.04052    -0.16496    -0.11237
 PX  C   3  -0.13847     0.02771    -0.01834     0.05983     0.07290     0.05637
 PY  C   3  -0.04188    -0.07448    -0.01383     0.10337    -0.18881    -0.11185
 PZ  C   3  -0.00360    -0.00727    -0.00070     0.00591    -0.01544    -0.01275
  
  S  C   4  -0.02981     0.04745     0.00735    -0.06849     0.16979     0.08828
 PX  C   4   0.12441    -0.04003     0.02818    -0.12533     0.10183     0.04263
 PY  C   4   0.12123     0.06015     0.00288    -0.01426    -0.16058    -0.11449
 PZ  C   4   0.00679     0.00816     0.00108    -0.00659     0.00375     0.00039
  
  S  C   5   0.17375    -0.10432     0.04026    -0.17621     0.14177     0.04989
 PX  C   5   0.00510    -0.05791    -0.01247     0.06700    -0.13935    -0.06218
 PY  C   5   0.10061    -0.20522     0.02917    -0.13027     0.15744     0.07230
 PZ  C   5  -0.00424    -0.01233    -0.00062     0.00335    -0.00055     0.00050
  
  S  C   6   0.09072    -0.29895     0.01771    -0.07483     0.05633     0.02574
 PX  C   6  -0.06970     0.30701    -0.01925     0.08227    -0.08685    -0.04026
 PY  C   6  -0.10721    -0.06476    -0.02474     0.11887    -0.09777    -0.03139
 PZ  C   6  -0.00490     0.01274    -0.00153     0.00674    -0.00691    -0.00263
  
  S  C   7   0.18193    -0.04703     0.02103    -0.06264    -0.07917    -0.05723
 PX  C   7   0.07011    -0.03445    -0.00357     0.01685    -0.13376    -0.10174
 PY  C   7  -0.11792     0.02019    -0.04517     0.13902     0.13949     0.25904
 PZ  C   7  -0.01808     0.00778    -0.00408     0.01401     0.01800     0.02662
  
  S  C   8  -0.26005    -0.05742    -0.02178     0.09792     0.11078     0.09721
 PX  C   8   0.06058     0.00317     0.00818    -0.10080    -0.02232    -0.07371
 PY  C   8  -0.10543    -0.03515    -0.00617     0.02016     0.17790     0.14874
 PZ  C   8  -0.01845    -0.00520    -0.00141     0.00707     0.01170     0.01084
  
  S  C   9  -0.02583     0.02192    -0.00611     0.13087     0.00950     0.08703
 PX  C   9  -0.18101    -0.02267    -0.01727     0.06944     0.09192     0.09310
 PY  C   9  -0.06190     0.00818     0.05090    -0.14055     0.01326    -0.19208
 PZ  C   9   0.00336    -0.00058     0.00176    -0.01278    -0.00105    -0.00955
  
  S  C  10   0.05944     0.02106     0.05747    -0.17382    -0.04464    -0.20347
 PX  C  10   0.12614    -0.00068     0.00605     0.08198    -0.05290     0.08695
[...]
  S   H   18   -0.1043   -0.0469    0.0168   -0.0292    0.0294    0.3069    0.0033    0.0843
  S   H   19   -0.1814   -0.1658   -0.2527    0.2326   -0.0282    0.0393   -0.0145   -0.1220
  S   H   20    0.1389   -0.2118   -0.3371   -0.0170    0.0902   -0.0038    0.0518    0.1185
  S   C   21    0.1195   -0.0916    0.0294    0.0059   -0.0046   -0.0001    0.0648    0.0394
  Px  C   21    0.1107   -0.1238    0.2136    0.2839    0.0975    0.0017   -0.0915   -0.1351
  Py  C   21   -0.1349    0.1238   -0.0732   -0.1001   -0.0299   -0.0003    0.2838    0.0606
  Pz  C   21   -0.0177    0.0176   -0.0125   -0.0105   -0.0020    0.0000    0.0131    0.0002
  S   C   22    0.0542   -0.0324   -0.0469   -0.0470   -0.0148   -0.0002   -0.1206    0.0312
  Px  C   22    0.0614   -0.0460   -0.0540   -0.0584   -0.0152    0.0010    0.4943   -0.1086
  Py  C   22    0.0953   -0.0665    0.0490    0.0493    0.0165    0.0003   -0.0582    0.0719
  Pz  C   22   -0.0017   -0.0003    0.0076    0.0069    0.0017   -0.0000   -0.0009   -0.0016
  S   C   23   -0.0652    0.0413   -0.0554   -0.0522   -0.0152    0.0001    0.0688   -0.0305
  Px  C   23   -0.1084    0.0725    0.0067    0.0141    0.0099   -0.0013   -0.1817    0.0360
  Py  C   23   -0.0072    0.0081   -0.0677   -0.0723   -0.0210   -0.0014   -0.4847    0.1645
  Pz  C   23   -0.0110    0.0074   -0.0079   -0.0076   -0.0021   -0.0000   -0.0041    0.0002
  S   C   24   -0.1140    0.0728    0.0234    0.0042   -0.0029   -0.0005   -0.0630   -0.0085
  Px  C   24    0.0627   -0.0419    0.0441    0.0582    0.0232   -0.0008   -0.1497    0.0446
  Py  C   24   -0.1871    0.1693    0.2297    0.2642    0.0857    0.0011    0.2026    0.0614
  Pz  C   24    0.0067   -0.0036    0.0063    0.0080    0.0028    0.0001    0.0100    0.0027
  S   H   25   -0.1945    0.1769   -0.1533   -0.1844   -0.0559   -0.0006    0.1746    0.0668
  S   H   26   -0.0851    0.0614    0.0463    0.0431    0.0099   -0.0007   -0.2940    0.0652
  S   H   27    0.0954   -0.0661    0.0542    0.0481    0.0103    0.0013    0.3379   -0.1052
  S   H   28    0.2074   -0.1626   -0.1509   -0.1589   -0.0472   -0.0008   -0.1415   -0.0205
  S   C   29    0.1278   -0.1303    0.1510    0.2385    0.0929   -0.0000    0.0164   -0.0125
  Px  C   29   -0.0818    0.0704    0.0336    0.1070    0.0567    0.0026   -0.1052   -0.1834
  Py  C   29    0.1378   -0.1825   -0.0633   -0.1090   -0.0621   -0.0021   -0.0306   -0.1307
  Pz  C   29    0.0026   -0.0109    0.0119    0.0040   -0.0014    0.0001   -0.0033   -0.0028
  S   C   30   -0.1466    0.1549    0.1616    0.2174    0.0864    0.0011   -0.0105    0.0059
  Px  C   30   -0.0694    0.0991   -0.0198   -0.0584   -0.0277    0.0016    0.0773    0.1401
  Py  C   30    0.1329   -0.1185    0.0472    0.1567    0.0785   -0.0011    0.0807    0.0380
  Pz  C   30   -0.0141    0.0147    0.0095    0.0204    0.0092    0.0001    0.0021    0.0026


   Root No.      73        74        75        76        77        78        79        80

                73 ????   32 a      27 b      33 a      28 b      29 b      30 b      31 b   

                 9.354     9.594    10.107    10.660    10.942    11.596    11.743    12.101
  
  S   C    1    0.0647    0.0735   -0.0382    0.0645   -0.0391    0.0241    0.0191   -0.0026
  Px  C    1    0.1882    0.2171    0.0821    0.2270    0.1431   -0.0758   -0.1563   -0.2068
  Py  C    1    0.0936    0.0886   -0.1780    0.0237   -0.1980    0.1052    0.1509    0.1345
  Pz  C    1    0.0192    0.0206   -0.0034    0.0164   -0.0008    0.0013   -0.0034   -0.0079
  S   C    2   -0.0715   -0.0710   -0.0739   -0.0455   -0.0884    0.0623    0.0347    0.0154
  Px  C    2    0.1849    0.2197    0.0209    0.2403    0.0538   -0.0005   -0.1244   -0.2128
  Py  C    2   -0.1873   -0.1344   -0.2180    0.0226   -0.2010    0.1649   -0.0021   -0.0991
  Pz  C    2   -0.0055   -0.0025   -0.0053    0.0043   -0.0032    0.0035   -0.0031   -0.0063
  S   C    3   -0.0217   -0.0448   -0.0043   -0.0589   -0.0239    0.0135    0.0171    0.0171
  Px  C    3   -0.1226   -0.0884   -0.2495    0.0591   -0.0482   -0.2204    0.0925    0.1169
  Py  C    3   -0.0434    0.0025   -0.1349    0.0771   -0.2329    0.3569   -0.1072   -0.2835
  Pz  C    3    0.0004   -0.0001   -0.0011   -0.0004   -0.0003   -0.0017    0.0021    0.0019
  S   C    4   -0.0211   -0.0427    0.0018   -0.0513    0.0221   -0.0096   -0.0264   -0.0210
  Px  C    4   -0.1962   -0.1143    0.2454    0.1338    0.2230   -0.1704    0.0891    0.1506
  Py  C    4   -0.1218   -0.1121    0.1332   -0.0013   -0.0841    0.3893   -0.1199   -0.2697
  Pz  C    4   -0.0024   -0.0029    0.0032   -0.0012   -0.0002    0.0073   -0.0034   -0.0068
  S   C    5   -0.0894   -0.0867    0.0615   -0.0259    0.0899   -0.0657   -0.0393   -0.0191
  Px  C    5   -0.1269   -0.0462    0.1753    0.1690    0.1400   -0.1220    0.1231    0.1757
  Py  C    5    0.2868    0.2832   -0.0828    0.1550   -0.1482    0.1029    0.1373    0.1192
  Pz  C    5    0.0159    0.0158   -0.0064    0.0082   -0.0108    0.0074    0.0084    0.0067
  S   C    6    0.0553    0.0690    0.0525    0.0800    0.0393   -0.0175    0.0011    0.0009
  Px  C    6    0.1400    0.1696    0.1430    0.1747    0.0904   -0.0333   -0.0017   -0.0065
  Py  C    6    0.1235    0.1458   -0.1362    0.1055   -0.2246    0.1313    0.2476    0.2386
  Pz  C    6    0.0116    0.0141    0.0038    0.0131   -0.0018    0.0013    0.0089    0.0091
  S   C    7    0.0552    0.0023    0.0848   -0.0886   -0.0238    0.0784    0.0310   -0.0064
  Px  C    7   -0.1019   -0.1069   -0.1659   -0.0195   -0.0562   -0.1610    0.1327    0.1291
  Py  C    7    0.1319   -0.0460    0.1071   -0.2330   -0.0831    0.0750    0.1509    0.0363
  Pz  C    7    0.0021   -0.0010    0.0019   -0.0040   -0.0010    0.0021    0.0025    0.0003
  S   C    8    0.0923    0.0282   -0.0865   -0.0738    0.0326   -0.0923   -0.0529    0.0154
  Px  C    8    0.1414   -0.0690   -0.0404   -0.1674    0.1264   -0.0098   -0.2236   -0.1049
  Py  C    8   -0.2706   -0.1282    0.2074    0.1109   -0.0102    0.2070   -0.0001   -0.1167
  Pz  C    8   -0.0091   -0.0069    0.0078    0.0011    0.0025    0.0080   -0.0042   -0.0062
  S   C    9   -0.0113    0.0417   -0.0294   -0.0021   -0.0165   -0.0315   -0.0043    0.0043
  Px  C    9    0.1881   -0.0433   -0.1006   -0.2099    0.1693   -0.0956   -0.2599   -0.0882
  Py  C    9    0.1247    0.0111    0.1018   -0.1892    0.1370    0.0827    0.3830   -0.0436
  Pz  C    9    0.0040   -0.0020    0.0035   -0.0050    0.0043    0.0023    0.0112   -0.0019
  S   C   10   -0.0022    0.0324    0.0415   -0.0084   -0.0032    0.0301    0.0019    0.0074
  Px  C   10    0.0591   -0.0353   -0.0539   -0.2034   -0.1913   -0.0636   -0.2449    0.0901
  Py  C   10    0.0629   -0.0814    0.1175   -0.1829   -0.0505    0.1088    0.4019    0.0499
  Pz  C   10    0.0020    0.0000    0.0050   -0.0065   -0.0032    0.0036    0.0091    0.0020
  S   C   11   -0.0305    0.0467    0.0749    0.0601    0.0549    0.0748    0.0486    0.0124
  Px  C   11    0.0358    0.0125    0.0125   -0.1753   -0.1299    0.0128   -0.2097    0.1138
  Py  C   11   -0.0970    0.1682    0.2038    0.0420    0.0471    0.1772   -0.0092    0.1224
  Pz  C   11   -0.0047    0.0091    0.0119   -0.0003    0.0014    0.0102   -0.0025    0.0076
  S   H   12   -0.0550    0.0838    0.1036    0.0469    0.0572    0.0932    0.0484    0.0386
  S   C   13   -0.0956    0.0565   -0.0529    0.0833   -0.0664   -0.0619   -0.0224   -0.0080
  Px  C   13   -0.1417    0.1859   -0.1179   -0.0448   -0.0028   -0.1605    0.1180   -0.1340
  Py  C   13    0.2553   -0.0857    0.0732   -0.2449    0.1514    0.0552    0.1334   -0.0265
  Pz  C   13    0.0116   -0.0093    0.0071   -0.0046    0.0032    0.0074   -0.0005    0.0037
  S   H   14    0.0874    0.0066    0.0908   -0.0922   -0.0251    0.0837    0.0365   -0.0231
  S   H   15    0.1079    0.1161   -0.0591    0.0868   -0.0482    0.0274    0.0197   -0.0040
  S   H   16   -0.1421   -0.1205   -0.1193   -0.0437   -0.1188    0.0899    0.0287   -0.0011
  S   H   17   -0.1826   -0.1540    0.0929   -0.0256    0.1159   -0.0908   -0.0328   -0.0064
  S   H   18    0.0787    0.0981    0.0854    0.1017    0.0540   -0.0224   -0.0005   -0.0027
  S   H   19    0.1727    0.0411   -0.1117   -0.0899    0.0432   -0.1093   -0.0658    0.0302
  S   H   20   -0.1647    0.0909   -0.0701    0.1011   -0.0793   -0.0798   -0.0414   -0.0277
  S   C   21    0.0410   -0.0752   -0.0948    0.0420    0.1027    0.0423    0.0343   -0.0244
  Px  C   21   -0.0280    0.0373    0.1758    0.1270   -0.1390   -0.0740    0.1146   -0.1797
  Py  C   21    0.1534   -0.2600   -0.1640    0.1957    0.1809    0.0741    0.1323   -0.1415
  Pz  C   21    0.0051   -0.0083   -0.0038    0.0074    0.0051    0.0022    0.0051   -0.0058
  S   C   22   -0.0482    0.0722   -0.0321   -0.0769    0.0291    0.0034   -0.0083    0.0068
  Px  C   22    0.1499   -0.2024    0.0930    0.1740   -0.0722   -0.0061    0.0074    0.0031
  Py  C   22    0.0359   -0.1013   -0.1976    0.1300    0.2531    0.0834    0.2160   -0.2546
  Pz  C   22   -0.0018    0.0031    0.0043   -0.0014   -0.0051   -0.0013   -0.0038    0.0047
  S   C   23   -0.0231    0.0584    0.0483   -0.0776   -0.0322   -0.0181   -0.0084   -0.0144
  Px  C   23    0.1276   -0.2448    0.0357    0.2628   -0.1513   -0.0219   -0.1392    0.2368
  Py  C   23    0.0001   -0.0680   -0.2258    0.0733    0.2079    0.0629    0.1210   -0.1288
  Pz  C   23    0.0013   -0.0016    0.0022   -0.0002   -0.0037   -0.0018   -0.0014    0.0010
  S   C   24    0.0746   -0.1107    0.0550    0.0607   -0.0876   -0.0367   -0.0263    0.0195
  Px  C   24    0.1146   -0.2310   -0.0251    0.2798   -0.0624    0.0263   -0.1142    0.2398
  Py  C   24   -0.2136    0.2456   -0.1681    0.0070    0.1847    0.1170   -0.0227    0.1157
  Pz  C   24   -0.0104    0.0128   -0.0090   -0.0020    0.0108    0.0056    0.0006    0.0026
  S   H   25    0.0834   -0.1368   -0.1306    0.0587    0.1352    0.0659    0.0325   -0.0140
  S   H   26   -0.0908    0.1241   -0.0516   -0.1067    0.0389    0.0040   -0.0087    0.0032
  S   H   27   -0.0371    0.1120    0.1116   -0.1203   -0.0637   -0.0282   -0.0179   -0.0084
  S   H   28    0.1391   -0.1849    0.0798    0.0721   -0.1146   -0.0557   -0.0207    0.0081
  S   C   29    0.0179   -0.0433   -0.0214    0.0618    0.0433    0.0218    0.0255   -0.0156
  Px  C   29   -0.0496    0.0916    0.2769    0.0779   -0.2421   -0.1130    0.0876   -0.1597
  Py  C   29   -0.0377    0.1151    0.1156   -0.0458    0.1643    0.3278   -0.1282    0.2789
  Pz  C   29   -0.0014    0.0029    0.0077    0.0005   -0.0101   -0.0072    0.0042   -0.0077
  S   C   30    0.0162   -0.0494    0.0061    0.0674   -0.0324   -0.0058   -0.0127    0.0169
  Px  C   30   -0.1999    0.2058   -0.1784    0.0440   -0.0563   -0.2129    0.0829   -0.1231
  Py  C   30   -0.1045    0.0928   -0.1552    0.0749    0.2827    0.2948   -0.1177    0.3091
  Pz  C   30   -0.0028   -0.0000   -0.0030    0.0068   -0.0003    0.0008   -0.0016    0.0046


   Root No.      81        82        83        84

                81 ????   82 ????   32 b      34 a   

                12.603    12.739    13.300    14.649
  
  S   C    1   -0.0624    0.0219   -0.0022    0.0363
  Px  C    1   -0.1175    0.2794   -0.1602    0.0845
  Py  C    1   -0.0753   -0.1371    0.1050    0.0293
  Pz  C    1   -0.0103    0.0116   -0.0052    0.0060
  S   C    2   -0.0176   -0.0171    0.0157    0.0254
  Px  C    2   -0.1690    0.2926   -0.1541    0.1259
  Py  C    2   -0.1366    0.1197   -0.0361    0.1145
  Pz  C    2   -0.0048    0.0072   -0.0031    0.0032
  S   C    3    0.0027   -0.0022   -0.0126    0.0279
  Px  C    3   -0.2424    0.1939   -0.2278    0.2109
  Py  C    3   -0.1050    0.1679    0.0084    0.1031
  Pz  C    3   -0.0015    0.0007   -0.0010    0.0016
  S   C    4    0.0118    0.0041    0.0132    0.0281
  Px  C    4   -0.2671   -0.0974    0.1477    0.2120
  Py  C    4   -0.0997    0.0067    0.2174    0.1411
  Pz  C    4   -0.0015    0.0012    0.0047    0.0039
  S   C    5   -0.0019    0.0291   -0.0164    0.0236
  Px  C    5   -0.2765   -0.1230    0.1518    0.1808
  Py  C    5   -0.1426   -0.1348    0.1333    0.0614
  Pz  C    5   -0.0072   -0.0075    0.0069    0.0024
  S   C    6   -0.0665    0.0070    0.0163    0.0396
  Px  C    6   -0.1284    0.0234    0.0246    0.0739
  Py  C    6   -0.1804   -0.2492    0.2125    0.0782
  Pz  C    6   -0.0129   -0.0082    0.0088    0.0062
  S   C    7    0.0634   -0.0111    0.0037    0.0070
  Px  C    7   -0.2038    0.1870   -0.2345    0.2316
  Py  C    7    0.0152    0.1153   -0.1204    0.1411
  Pz  C    7   -0.0001    0.0023   -0.0016    0.0028
  S   C    8    0.0547   -0.0203   -0.0082    0.0162
  Px  C    8   -0.1031   -0.1206    0.2472    0.2818
  Py  C    8   -0.1564    0.0013    0.1586    0.1266
  Pz  C    8   -0.0068   -0.0020    0.0101    0.0088
  S   C    9    0.0658    0.0047   -0.0103    0.0010
  Px  C    9   -0.0352   -0.1260    0.2408    0.2980
  Py  C    9    0.1163    0.2491    0.1181    0.1295
  Pz  C    9   -0.0008    0.0066    0.0041    0.0035
  S   C   10    0.0538   -0.0319   -0.0135    0.0035
  Px  C   10   -0.0546   -0.1345   -0.2220    0.2776
  Py  C   10    0.0026    0.2761   -0.1282    0.1184
  Pz  C   10    0.0028    0.0046   -0.0056    0.0049
  S   C   11    0.0612   -0.0092   -0.0145   -0.0131
  Px  C   11    0.0146   -0.1601   -0.2468    0.2740
  Py  C   11    0.1351   -0.0819   -0.1801    0.1379
  Pz  C   11    0.0051   -0.0049   -0.0112    0.0082
  S   H   12    0.0555    0.0054   -0.0304    0.0044
  S   C   13    0.0637   -0.0137   -0.0004   -0.0094
  Px  C   13    0.2591    0.0953    0.2338    0.2584
  Py  C   13    0.0242    0.1127    0.1155    0.1538
  Pz  C   13   -0.0067   -0.0003   -0.0046   -0.0029
  S   H   14    0.0526    0.0082    0.0105   -0.0004
  S   H   15   -0.0701    0.0222    0.0007    0.0360
  S   H   16   -0.0240   -0.0125    0.0217    0.0207
  S   H   17   -0.0042    0.0304   -0.0252    0.0147
  S   H   18   -0.0698    0.0147    0.0102    0.0370
  S   H   19    0.0346   -0.0367   -0.0086    0.0144
  S   H   20    0.0454   -0.0334    0.0083   -0.0038
  S   C   21   -0.0137   -0.0236   -0.0129   -0.0245
  Px  C   21    0.1936   -0.2238   -0.1595    0.1848
  Py  C   21    0.0810   -0.1886   -0.1386    0.0671
  Pz  C   21    0.0050   -0.0081   -0.0060    0.0047
  S   C   22   -0.0617    0.0287    0.0236   -0.0407
  Px  C   22    0.1264   -0.0392   -0.0332    0.0759
  Py  C   22    0.0619   -0.2908   -0.2068    0.0816
  Pz  C   22    0.0009    0.0043    0.0028    0.0002
  S   C   23   -0.0706   -0.0016   -0.0039   -0.0393
  Px  C   23    0.2409    0.1962    0.1427    0.0950
  Py  C   23    0.0271   -0.1365   -0.0913    0.0350
  Pz  C   23   -0.0005    0.0017    0.0014   -0.0006
  S   C   24    0.0040    0.0229    0.0171   -0.0220
  Px  C   24    0.2873    0.1850    0.1336    0.1365
  Py  C   24    0.1565    0.0527    0.0260    0.1159
  Pz  C   24    0.0049    0.0005    0.0002    0.0045
  S   H   25   -0.0097   -0.0319   -0.0286   -0.0117
  S   H   26   -0.0726    0.0248    0.0189   -0.0404
  S   H   27   -0.0832    0.0100    0.0046   -0.0415
  S   H   28    0.0082    0.0261    0.0266   -0.0125
  S   C   29    0.0079   -0.0050    0.0112   -0.0331
  Px  C   29    0.2011   -0.2101   -0.1658    0.2240
  Py  C   29    0.0653   -0.0640   -0.2363    0.1365
  Pz  C   29    0.0053   -0.0058   -0.0036    0.0063
  S   C   30    0.0042   -0.0022   -0.0159   -0.0318
  Px  C   30    0.2974    0.0821    0.2190    0.2299
  Py  C   30    0.1433    0.0956   -0.0287    0.0980
  Pz  C   30    0.0058    0.0027    0.0009    0.0015


              NET ATOMIC CHARGES AND DIPOLE CONTRIBUTIONS

  ATOM NO.   TYPE          CHARGE      No. of ELECS.   s-Pop       p-Pop       
    1          C          -0.025312        4.0253     1.10552     2.91979
    2          C          -0.033666        4.0337     1.10139     2.93228
    3          C           0.013931        3.9861     1.06981     2.91625
    4          C           0.010296        3.9897     1.06875     2.92095
    5          C          -0.026280        4.0263     1.09361     2.93267
    6          C          -0.025987        4.0260     1.09746     2.92853
    7          C          -0.034847        4.0348     1.11405     2.92079
    8          C          -0.026634        4.0266     1.08257     2.94406
    9          C           0.012580        3.9874     1.05830     2.92912
   10          C           0.007448        3.9926     1.06918     2.92337
   11          C          -0.031761        4.0318     1.09502     2.93675
   12          H           0.020511        0.9795     0.97949
   13          C          -0.031429        4.0314     1.09766     2.93377
   14          H           0.019919        0.9801     0.98008
   15          H           0.019830        0.9802     0.98017
   16          H           0.030382        0.9696     0.96962
   17          H           0.027005        0.9730     0.97300
   18          H           0.018332        0.9817     0.98167
   19          H           0.027013        0.9730     0.97299
   20          H           0.017514        0.9825     0.98249
   21          C          -0.023808        4.0238     1.08922     2.93458
   22          C          -0.022182        4.0222     1.09727     2.92491
   23          C          -0.034353        4.0344     1.09420     2.94015
   24          C          -0.025897        4.0259     1.10508     2.92081
   25          H           0.024588        0.9754     0.97541
   26          H           0.021741        0.9783     0.97826
   27          H           0.031187        0.9688     0.96881
   28          H           0.023368        0.9766     0.97663
   29          C           0.011938        3.9881     1.06819     2.91987
   30          C           0.004575        3.9954     1.07538     2.92005
 DIPOLE           X         Y         Z       TOTAL
 POINT-CHG.     0.055     0.121    -0.050     0.142
 HYBRID        -0.254     0.044    -0.312     0.405
 SUM           -0.199     0.165    -0.362     0.445


          ATOMIC ORBITAL ELECTRON POPULATIONS

     Atom    s        px        py        pz   
    1  C   1.10552   0.97858   0.95257   0.98864
    2  C   1.10139   0.97922   0.94447   1.00858
    3  C   1.06981   0.97088   0.95760   0.98778
    4  C   1.06875   0.96874   0.96794   0.98428
    5  C   1.09361   0.97429   0.95736   1.00102
    6  C   1.09746   0.94056   0.98905   0.99892
    7  C   1.11405   0.96311   0.94573   1.01196
    8  C   1.08257   0.97062   0.95778   1.01566
    9  C   1.05830   0.97152   0.97486   0.98274
   10  C   1.06918   0.97756   0.96809   0.97772
   11  C   1.09502   0.97852   0.94167   1.01656
   12  H   0.97949
   13  C   1.09766   0.96946   0.95275   1.01157
   14  H   0.98008
   15  H   0.98017
   16  H   0.96962
   17  H   0.97300
   18  H   0.98167
   19  H   0.97299
   20  H   0.98249
   21  C   1.08922   0.97143   0.95475   1.00841
   22  C   1.09727   0.94411   0.98501   0.99579
   23  C   1.09420   0.98319   0.95430   1.00266
   24  C   1.10508   0.97555   0.94976   0.99551
   25  H   0.97541
   26  H   0.97826
   27  H   0.96881
   28  H   0.97663
   29  C   1.06819   0.96438   0.97127   0.98423
   30  C   1.07538   0.97087   0.96187   0.98730

 **********************
 *                    *
 * JOB ENDED NORMALLY *
 *                    *
 **********************



 TOTAL JOB TIME:             1.70 SECONDS

 == MOPAC DONE ==


          MOPAC Job: "./tetraceneTraj/tetracene_190.mop" ended normally on Feb 15, 2023, at 11:22.

rm: cannot remove ./tetraceneTraj/tetracene_190.cim: No such file or directory
rm: cannot remove ./tetraceneTraj/tetracene_190.end: No such file or directory
rm: cannot remove ./tetraceneTraj/tetracene_190.log: No such file or directory
rm: cannot remove ./tetraceneTraj/tetracene_190.temp: No such file or directory
rm: cannot remove ./tetraceneTraj/tetracene_190.ple: No such file or directory
rm: cannot remove ./tetraceneTraj/tetracene_190.sts: No such file or directory
