 *******************************************************************************
 ** Site#:    0         For non-commercial use only    Version 20.173L 64BITS **
 *******************************************************************************
 ** Cite this program as: MOPAC2016, Version: 20.173L, James J. P. Stewart,   **
 ** Stewart Computational Chemistry, web-site: HTTP://OpenMOPAC.net.          **
 *******************************************************************************
 **                                                                           **
 **                                MOPAC2016                                  **
 **                                                                           **
 *******************************************************************************

                              INDO CALCULATION RESULTS

 *******************************************************************************
 *  CALCULATION DONE:                                Wed Feb 15 11:36:01 2023  *
 *  INDO       - The INDO Hamiltonian to be used
 *
 *
 *
 *                 CHARGE ON SYSTEM = 0
 *
 *
 *
 *  C.I.=(N,M) - 3 DOUBLY FILLED LEVELS USED IN A C.I. INVOLVING 6 M.O.'S
 *  T=         - A TIME OF 172800.0 SECONDS REQUESTED
 *  DUMP=N     - RESTART FILE WRITTEN EVERY 7200.0 SECONDS REQUESTED
 *  RELSCF     - DEFAULT SCF CRITERION MULTIPLIED BY 0.0000
 *              (DEFAULT SCF CRITERION = 0.00010)
 *  ALLVEC     - PRINT ALL EIGENVECTORS
 **********
 *  WARNING: Specified print options may not behave as expected with INDO
 **********
 *******************************************************************************
INDO C.I.=(6,3) AllVEC CHARGE=0 RELSCF=0.000001


   ATOM   CHEMICAL          X               Y               Z
  NUMBER   SYMBOL      (ANGSTROMS)     (ANGSTROMS)     (ANGSTROMS)
 
     1       C         18.46521718  *  19.51378117  *  22.30251058  *
     2       C         19.83632258  *  19.45525752  *  22.42047524  *
     3       C         20.65180592  *  20.61989710  *  22.38344341  *
     4       C         19.98059764  *  21.94811785  *  22.44787962  *
     5       C         18.52282000  *  21.97546417  *  22.39572984  *
     6       C         17.79583186  *  20.82315751  *  22.30511934  *
     7       C         22.05620232  *  20.59855886  *  22.56658099  *
     8       C         20.72611576  *  23.10571819  *  22.59358431  *
     9       C         22.17984779  *  23.14425604  *  22.55077201  *
    10       C         22.85825644  *  21.82001820  *  22.58599415  *
    11       C         24.33154644  *  21.80710835  *  22.60851694  *
    12       H         24.84342575  *  20.80928190  *  22.65412955  *
    13       C         22.92581258  *  24.34597205  *  22.55192059  *
    14       H         22.56215378  *  19.62367208  *  22.59580462  *
    15       H         17.96003805  *  18.53707523  *  22.19221355  *
    16       H         20.35908103  *  18.49970321  *  22.44804555  *
    17       H         17.95592198  *  22.98564405  *  22.36338774  *
    18       H         16.66920116  *  20.89199381  *  22.29524709  *
    19       H         20.19144080  *  24.04380197  *  22.70821100  *
    20       H         22.40828159  *  25.30437143  *  22.47822281  *
    21       C         26.50454408  *  23.08585073  *  22.48323835  *
    22       C         27.20109824  *  24.30979684  *  22.48082800  *
    23       C         26.48833355  *  25.56428817  *  22.55940887  *
    24       C         25.10514702  *  25.53828570  *  22.62838845  *
    25       H         27.11534686  *  22.11380101  *  22.36366144  *
    26       H         28.32086683  *  24.22826637  *  22.50473497  *
    27       H         26.99498642  *  26.54599604  *  22.56306878  *
    28       H         24.56550688  *  26.47806618  *  22.73461397  *
    29       C         25.04388083  *  23.03709965  *  22.56107125  *
    30       C         24.33113436  *  24.30219182  *  22.58282135  *
 


          CARTESIAN COORDINATES 

    NO.       ATOM           X           Y           Z

     1         C         18.4652     19.5138     22.3025
     2         C         19.8363     19.4553     22.4205
     3         C         20.6518     20.6199     22.3834
     4         C         19.9806     21.9481     22.4479
     5         C         18.5228     21.9755     22.3957
     6         C         17.7958     20.8232     22.3051
     7         C         22.0562     20.5986     22.5666
     8         C         20.7261     23.1057     22.5936
     9         C         22.1798     23.1443     22.5508
    10         C         22.8583     21.8200     22.5860
    11         C         24.3315     21.8071     22.6085
    12         H         24.8434     20.8093     22.6541
    13         C         22.9258     24.3460     22.5519
    14         H         22.5622     19.6237     22.5958
    15         H         17.9600     18.5371     22.1922
    16         H         20.3591     18.4997     22.4480
    17         H         17.9559     22.9856     22.3634
    18         H         16.6692     20.8920     22.2952
    19         H         20.1914     24.0438     22.7082
    20         H         22.4083     25.3044     22.4782
    21         C         26.5045     23.0859     22.4832
    22         C         27.2011     24.3098     22.4808
    23         C         26.4883     25.5643     22.5594
    24         C         25.1051     25.5383     22.6284
    25         H         27.1153     22.1138     22.3637
    26         H         28.3209     24.2283     22.5047
    27         H         26.9950     26.5460     22.5631
    28         H         24.5655     26.4781     22.7346
    29         C         25.0439     23.0371     22.5611
    30         C         24.3311     24.3022     22.5828

           Empirical Formula: C18 H12  =    30 atoms



      MOLECULAR POINT GROUP   :   C1  


      RHF CALCULATION, NO. OF DOUBLY OCCUPIED LEVELS = 42

 WARNING: INDO only performs single-point calculations
  SCF CRITERION =    0.1000E-09

 Summary of symmetry occupancy in each shell:

 SHELL     
    1   42
    v   42
 TOTAL  84




    ROOT NO.    1           2           3           4           5           6

           -44.35534   -42.99867   -40.15311   -36.84318   -35.48508   -34.12197
  
  
  S  C   1   0.14541    -0.21840    -0.24784    -0.25381     0.06765    -0.10088
 PX  C   1   0.04238    -0.05809    -0.04911    -0.02118     0.05963    -0.08621
 PY  C   1   0.05044    -0.07263    -0.07277    -0.05945    -0.03568     0.05558
 PZ  C   1   0.00446    -0.00621    -0.00565    -0.00362     0.00250    -0.00348
  
  S  C   2   0.18387    -0.24693    -0.20944    -0.12551     0.21408    -0.27475
 PX  C   2  -0.00625     0.02666     0.06951     0.11242     0.05294    -0.04431
 PY  C   2   0.07044    -0.08729    -0.05436    -0.00318     0.01338    -0.00766
 PZ  C   2  -0.00303     0.00568     0.00873     0.01044    -0.00207     0.00422
  
  S  C   3   0.28806    -0.28823    -0.04876     0.16424     0.20562    -0.20326
 PX  C   3  -0.01186     0.06253     0.13383     0.13736     0.07885    -0.04271
 PY  C   3   0.04958    -0.01986     0.06715     0.10090    -0.10904     0.12639
 PZ  C   3   0.01372    -0.01079     0.00629     0.01859     0.01152    -0.00989
  
  S  C   4   0.29164    -0.28270    -0.02656     0.18169    -0.20141     0.18687
 PX  C   4   0.03836     0.01548     0.12893     0.15644     0.05310    -0.08489
 PY  C   4  -0.03345     0.06314     0.08223     0.06126    -0.12998     0.10384
 PZ  C   4   0.00295     0.00082     0.00970     0.01314    -0.00525     0.00241
  
  S  C   5   0.17638    -0.23292    -0.18863    -0.10955    -0.22522     0.28196
 PX  C   5   0.05335    -0.05416    -0.00109     0.06307    -0.03932     0.02286
 PY  C   5  -0.04733     0.07529     0.09241     0.09550    -0.01848     0.00519
 PZ  C   5  -0.00010     0.00152     0.00481     0.00782    -0.00088    -0.00109
  
  S  C   6   0.14358    -0.21470    -0.24129    -0.24663    -0.09873     0.14716
 PX  C   6   0.06552    -0.09239    -0.08669    -0.05964    -0.01441     0.01531
 PY  C   6   0.00311    -0.00121     0.00856     0.02391    -0.06431     0.09256
 PZ  C   6   0.00441    -0.00621    -0.00583    -0.00416    -0.00349     0.00490
  
  S  C   7   0.22566    -0.12546     0.15333     0.23227     0.31576    -0.15471
 PX  C   7  -0.04221     0.07097     0.03162    -0.07401     0.00068     0.08414
 PY  C   7   0.06862    -0.01187     0.08659     0.06398    -0.00754     0.04849
 PZ  C   7  -0.00669     0.00607    -0.00165    -0.00932    -0.00862     0.00951
  
  S  C   8   0.24195    -0.12200     0.18423     0.23622    -0.31087     0.14214
 PX  C   8   0.03828     0.03176     0.09416     0.00162     0.01548    -0.08507
 PY  C   8  -0.07021     0.06648    -0.01905    -0.10231    -0.01376    -0.03916
 PZ  C   8  -0.00804     0.00651    -0.00320    -0.00994     0.00733    -0.00654
  
  S  C   9   0.31108     0.03430     0.32641    -0.01131    -0.18961    -0.03390
 PX  C   9   0.02315     0.08809     0.01605    -0.18938     0.07762    -0.04057
 PY  C   9  -0.04130     0.04485    -0.04115    -0.10916    -0.12269    -0.05820
 PZ  C   9   0.00245     0.00117     0.00363    -0.00147    -0.00131     0.00002
  
  S  C  10   0.29478     0.02236     0.30362     0.01392     0.22252     0.04152
 PX  C  10  -0.02965     0.07996    -0.03072    -0.18014     0.06324     0.07324
 PY  C  10   0.05024     0.05085     0.05083    -0.10155    -0.11303     0.01809
 PZ  C  10  -0.00364     0.00154    -0.00291    -0.00422    -0.00141     0.00179
  
  S  C  11   0.20930     0.14315     0.14531    -0.20291     0.29432     0.23615
 PX  C  11  -0.04132     0.01337    -0.08850     0.01057    -0.01527     0.06266
 PY  C  11   0.06912     0.07359     0.01802    -0.09889     0.00231     0.04652
 PZ  C  11  -0.00344    -0.00243    -0.00173     0.00263    -0.00346    -0.00357
  
  S  H  12   0.05962     0.03791     0.04021    -0.04761     0.13859     0.10573
  
  S  C  13   0.23633     0.16322     0.16755    -0.24067    -0.26653    -0.22817
 PX  C  13   0.03510     0.07404    -0.04214    -0.08142     0.02384    -0.06203
 PY  C  13  -0.07350    -0.02530    -0.09219     0.06148    -0.00659    -0.04550
 PZ  C  13   0.00089     0.00098     0.00042    -0.00135     0.00043    -0.00053
  
  S  H  14   0.06867    -0.03865     0.04156     0.06370     0.16006    -0.07789
  
  S  H  15   0.03718    -0.05845    -0.07431    -0.08957     0.03412    -0.05305
  
  S  H  16   0.05659    -0.07412    -0.05907    -0.03032     0.11425    -0.14292
  
  S  H  17   0.04821    -0.06136    -0.04533    -0.02301    -0.10470     0.12770
  
  S  H  18   0.03484    -0.05466    -0.06930    -0.08461    -0.04079     0.06423
  
  S  H  19   0.07731    -0.03756     0.05658     0.06633    -0.16564     0.07389
  
  S  H  20   0.07394     0.05000     0.04936    -0.06714    -0.14250    -0.11817
  
  S  C  21   0.14799     0.22509    -0.21135     0.12018     0.15619     0.28586
 PX  C  21  -0.04896    -0.05988     0.01336     0.05200    -0.03888    -0.04175
 PY  C  21   0.03852     0.06947    -0.09514     0.09234    -0.02287    -0.01920
 PZ  C  21   0.00298     0.00430    -0.00310     0.00012     0.00123     0.00106
  
  S  C  22   0.12073     0.20653    -0.26281     0.25278     0.04735     0.12042
 PX  C  22  -0.05526    -0.08920     0.09509    -0.06237    -0.00430    -0.00810
 PY  C  22  -0.00322    -0.00234    -0.00732     0.02264    -0.04640    -0.09313
 PZ  C  22   0.00317     0.00541    -0.00673     0.00606    -0.00062    -0.00103
  
  S  C  23   0.12443     0.21264    -0.26963     0.25664    -0.06491    -0.11453
 PX  C  23  -0.03385    -0.05214     0.04674    -0.01379     0.04175     0.08342
 PY  C  23  -0.04506    -0.07410     0.08378    -0.06404    -0.01876    -0.04602
 PZ  C  23   0.00003    -0.00003     0.00034    -0.00094    -0.00220    -0.00488
  
  S  C  24   0.16252     0.24567    -0.22473     0.11603    -0.16198    -0.28260
 PX  C  24   0.00505     0.02683    -0.07994     0.11836     0.03440     0.04569
 PY  C  24  -0.06164    -0.08582     0.05596     0.00408     0.00813     0.00552
 PZ  C  24  -0.00375    -0.00592     0.00608    -0.00408     0.00091     0.00097
  
  S  H  25   0.03956     0.05896    -0.05327     0.02952     0.07350     0.13105
  
  S  H  26   0.02955     0.05299    -0.07592     0.08684     0.02166     0.05613
  
  S  H  27   0.03159     0.05649    -0.08032     0.09042    -0.02966    -0.05630
  
  S  H  28   0.05090     0.07456    -0.06270     0.02640    -0.08685    -0.14972
  
  S  C  29   0.26170     0.29835    -0.06010    -0.16158     0.18332     0.24165
 PX  C  29  -0.04510    -0.00372    -0.12479     0.15337     0.02230     0.07446
 PY  C  29   0.03479     0.06675    -0.08463     0.05145    -0.10053    -0.11818
 PZ  C  29   0.00038    -0.00054     0.00324    -0.00419    -0.00079    -0.00313
  
  S  C  30   0.27610     0.31416    -0.05865    -0.18171    -0.13447    -0.19951
 PX  C  30  -0.00145     0.04898    -0.14461     0.13931     0.07138     0.07587
 PY  C  30  -0.04864    -0.02743    -0.06651     0.09673    -0.09840    -0.14892
 PZ  C  30  -0.00172    -0.00164    -0.00041     0.00162    -0.00050    -0.00211




    ROOT NO.    7           8           9          10          11          12

           -31.60237   -31.21630   -28.92439   -28.01748   -26.75300   -26.10072
  
  
  S  C   1   0.17527     0.25442     0.20365     0.26175     0.01452     0.18162
 PX  C   1   0.10026    -0.06915     0.10212    -0.14389    -0.02160     0.05837
 PY  C   1  -0.07847     0.02525    -0.11001    -0.01111     0.08302    -0.10045
 PZ  C   1   0.00378    -0.00241     0.00306    -0.00816     0.00058     0.00055
  
  S  C   2   0.25899    -0.03934     0.16775    -0.11992    -0.11163     0.00822
 PX  C   2  -0.04491    -0.14479    -0.14270    -0.12831    -0.06705    -0.19361
 PY  C   2  -0.03132    -0.07383    -0.07581    -0.09724     0.11091    -0.08019
 PZ  C   2  -0.00950    -0.00756    -0.01296    -0.00272    -0.00129    -0.01137
  
  S  C   3   0.03043    -0.23950    -0.12388    -0.12935     0.10414    -0.16569
 PX  C   3  -0.06830     0.03132    -0.12746     0.15779    -0.08970    -0.07044
 PY  C   3  -0.08345    -0.00919     0.01694     0.09141     0.19193     0.11550
 PZ  C   3  -0.00339    -0.01200    -0.01324     0.00405     0.00178    -0.01185
  
  S  C   4  -0.06581    -0.24711     0.12103    -0.11971     0.09256     0.18865
 PX  C   4   0.09269     0.00762     0.04463     0.16791     0.11171    -0.05149
 PY  C   4   0.02316     0.02278     0.13060     0.08096    -0.19116     0.09458
 PZ  C   4   0.00566    -0.00244     0.01225     0.01170    -0.00932     0.00553
  
  S  C   5  -0.25605    -0.02767    -0.16164    -0.13722    -0.12429    -0.02762
 PX  C   5   0.03501    -0.14707     0.14571    -0.13470     0.03957     0.19749
 PY  C   5   0.02895    -0.07631     0.08601    -0.03523    -0.11381     0.08905
 PZ  C   5   0.00557    -0.00956     0.01290    -0.00490    -0.00274     0.01363
  
  S  C   6  -0.16416     0.26014    -0.21523     0.23042     0.01296    -0.18984
 PX  C   6  -0.00274    -0.02057     0.02524    -0.08881     0.05164     0.06309
 PY  C   6  -0.12541    -0.06763    -0.13741    -0.13242    -0.06850    -0.11062
 PZ  C   6  -0.00567    -0.00040    -0.00552    -0.00546    -0.00048    -0.00323
  
  S  C   7  -0.19018     0.02160    -0.23630     0.13090    -0.18377    -0.00447
 PX  C   7  -0.09468     0.15323     0.05799     0.02829    -0.11469     0.19201
 PY  C   7  -0.05278     0.08757     0.02947     0.10055     0.15620     0.10957
 PZ  C   7  -0.00121     0.00987     0.01043    -0.00053    -0.00354     0.01465
  
  S  C   8   0.18558    -0.01137     0.23273     0.12467    -0.17311    -0.01818
 PX  C   8   0.10870     0.15752    -0.07016     0.09266     0.09201    -0.19970
 PY  C   8   0.07065     0.07464    -0.03007    -0.03790    -0.17571    -0.11800
 PZ  C   8   0.00182     0.00748    -0.00501    -0.00140    -0.00888    -0.00915
  
  S  C   9   0.22711     0.24827    -0.01821     0.00003     0.09648    -0.18986
 PX  C   9  -0.07837     0.01555    -0.09498    -0.18105     0.11304     0.08424
 PY  C   9   0.12731    -0.04087    -0.06930    -0.11186    -0.20394    -0.11149
 PZ  C   9   0.00273     0.00582     0.00232     0.00106    -0.00032    -0.00337
  
  S  C  10  -0.20824     0.27708     0.00810     0.01876     0.07073     0.19663
 PX  C  10  -0.06362    -0.00826     0.10692    -0.18995    -0.11812     0.06340
 PY  C  10   0.13172     0.02287     0.05491    -0.09548     0.21954    -0.10836
 PZ  C  10  -0.00013     0.00122     0.00445    -0.00359    -0.00660     0.00309
  
  S  C  11  -0.16055     0.03314     0.23948    -0.14480    -0.19032    -0.00154
 PX  C  11   0.10538    -0.15311     0.04184     0.07020    -0.06491    -0.20001
 PY  C  11   0.05579    -0.07949     0.03591    -0.03614     0.16766    -0.11095
 PZ  C  11  -0.00103     0.00181    -0.00034     0.00002    -0.00273     0.00362
  
  S  H  12  -0.07771     0.01604     0.10420    -0.03335    -0.20983     0.00440
  
  S  C  13   0.14723    -0.00299    -0.23466    -0.13067    -0.16193     0.01996
 PX  C  13  -0.13406    -0.14338    -0.03681     0.02265     0.10144     0.20920
 PY  C  13  -0.07104    -0.08743    -0.02028     0.09184    -0.15856     0.10529
 PZ  C  13  -0.00260    -0.00062     0.00245     0.00111     0.00361     0.00229
  
  S  H  14  -0.08936     0.00675    -0.11108     0.01930    -0.21739    -0.00747
  
  S  H  15   0.09770     0.12957     0.12951     0.17467    -0.03086     0.12979
  
  S  H  16   0.12761    -0.02161     0.07830    -0.04560    -0.14185    -0.01025
  
  S  H  17  -0.11254    -0.01035    -0.07139    -0.04542    -0.13632    -0.02555
  
  S  H  18  -0.08105     0.13316    -0.12372     0.15865    -0.02645    -0.13647
  
  S  H  19   0.09390    -0.01279     0.11513     0.01484    -0.21754    -0.01279
  
  S  H  20   0.07123    -0.00671    -0.11137    -0.02368    -0.20450     0.00522
  
  S  C  21   0.28567    -0.06567    -0.17864     0.13213    -0.12710     0.01716
 PX  C  21   0.04136     0.13672    -0.13624    -0.12729    -0.03886     0.20378
 PY  C  21   0.03173     0.06947    -0.08241    -0.02536     0.09489     0.11108
 PZ  C  21  -0.00281    -0.00396     0.00706     0.00386     0.00486    -0.00838
  
  S  C  22   0.20354     0.24297    -0.21847    -0.22423     0.01702     0.21559
 PX  C  22   0.00550     0.01758    -0.03401    -0.08385    -0.04232     0.07376
 PY  C  22  -0.12336     0.09184     0.13866    -0.13327     0.07264    -0.10670
 PZ  C  22  -0.00160     0.00563     0.00305    -0.00487     0.00389    -0.00287
  
  S  C  23  -0.14132     0.28592     0.19067    -0.25092     0.03848    -0.17616
 PX  C  23   0.11472     0.06414    -0.10797    -0.14833     0.03262     0.08135
 PY  C  23  -0.07713    -0.01304     0.09909    -0.01867    -0.06173    -0.10587
 PZ  C  23  -0.00777    -0.00254     0.00894     0.00563    -0.00368    -0.00785
  
  S  C  24  -0.28348    -0.01629     0.17499     0.12719    -0.10675    -0.03207
 PX  C  24  -0.01208     0.15190     0.12592    -0.11224     0.07799    -0.18784
 PY  C  24  -0.02196     0.09251     0.07623    -0.10599    -0.08219    -0.09961
 PZ  C  24  -0.00026    -0.00136     0.00096     0.00025    -0.00537     0.00047
  
  S  H  25   0.12970    -0.02302    -0.08441     0.03649    -0.12663     0.01765
  
  S  H  26   0.10539     0.12290    -0.13178    -0.15269    -0.01979     0.15707
  
  S  H  27  -0.07746     0.14911     0.11660    -0.17367    -0.00441    -0.12393
  
  S  H  28  -0.14450    -0.00587     0.08561     0.04255    -0.12708    -0.01163
  
  S  C  29   0.05933    -0.25130     0.12011     0.10879     0.07732    -0.19875
 PX  C  29   0.10904    -0.02280    -0.05593     0.16066    -0.11732    -0.06928
 PY  C  29   0.00259    -0.04788    -0.11444     0.10952     0.16263     0.10477
 PZ  C  29  -0.00677     0.00069     0.00666    -0.00554     0.00291     0.00108
  
  S  C  30  -0.09594    -0.25256    -0.09379     0.12845     0.09010     0.17457
 PX  C  30  -0.04505    -0.03612     0.12464     0.16826     0.07335    -0.08963
 PY  C  30  -0.09074     0.01212    -0.02233     0.09292    -0.18073     0.10847
 PZ  C  30  -0.00500     0.00029     0.00493     0.00304    -0.00252     0.00092




    ROOT NO.   13          14          15          16          17          18

           -25.21638   -23.69567   -22.74068   -21.60295   -20.59243   -19.34774
  
  
  S  C   1  -0.01953    -0.15513    -0.01858    -0.15358    -0.05607    -0.01941
 PX  C   1   0.02976     0.23767    -0.00169    -0.00744     0.18625     0.18762
 PY  C   1  -0.14149    -0.00034    -0.18856     0.14773    -0.16690     0.17348
 PZ  C   1  -0.00117     0.01658    -0.00456     0.00577     0.01019     0.02519
  
  S  C   2   0.14984     0.18476     0.10833     0.10650     0.11033     0.04282
 PX  C   2   0.08240    -0.01459     0.07282     0.18110    -0.10029    -0.14029
 PY  C   2  -0.17617     0.00666    -0.19596     0.09780    -0.15028     0.07012
 PZ  C   2   0.00260    -0.00681     0.00488     0.00714    -0.00569    -0.00528
  
  S  C   3  -0.11127    -0.09300    -0.00033     0.10245    -0.02893    -0.14503
 PX  C   3   0.13409    -0.17245     0.13489    -0.11430    -0.01270    -0.03542
 PY  C   3  -0.19051    -0.09631    -0.01654    -0.13275     0.14300    -0.07802
 PZ  C   3   0.00175    -0.01791     0.00900    -0.00022    -0.00518    -0.00298
  
  S  C   4  -0.09669    -0.09520    -0.00760    -0.09425    -0.02642    -0.15279
 PX  C   4  -0.08206    -0.16167     0.09171     0.16757     0.11440    -0.06613
 PY  C   4   0.22711    -0.07603     0.12183     0.01591    -0.09239     0.02221
 PZ  C   4   0.01421    -0.01722     0.01242     0.01517    -0.01290     0.00739
  
  S  C   5   0.16693     0.18276     0.10461    -0.14848     0.12105     0.02364
 PX  C   5  -0.08630    -0.01375    -0.14606    -0.14967    -0.18639    -0.03112
 PY  C   5   0.15757    -0.02587     0.14348    -0.09939     0.00601    -0.15655
 PZ  C   5   0.00175    -0.00698    -0.00306    -0.00530    -0.01637    -0.00244
  
  S  C   6  -0.01214    -0.13939     0.01630     0.17298    -0.06028    -0.01034
 PX  C   6  -0.09415     0.13438    -0.16633    -0.10840    -0.01663     0.23822
 PY  C   6   0.11345     0.20384     0.12637     0.01722     0.25248     0.05266
 PZ  C   6   0.00043     0.01101    -0.00217     0.00028     0.00703     0.01604
  
  S  C   7   0.11766    -0.11132    -0.08839    -0.21261    -0.08967     0.13601
 PX  C   7   0.02329     0.14876    -0.17778    -0.07725    -0.00611     0.17008
 PY  C   7  -0.11276     0.08532     0.04300    -0.02736     0.21825     0.01296
 PZ  C   7  -0.00121     0.01597    -0.01415     0.00013    -0.00037     0.02100
  
  S  C   8   0.10993    -0.08804    -0.04964     0.21805    -0.08088     0.14172
 PX  C   8  -0.10225     0.15374    -0.04762     0.06069     0.18060     0.10357
 PY  C   8   0.06855     0.07415    -0.17076     0.06125    -0.12012     0.13330
 PZ  C   8   0.00623     0.00795    -0.01151     0.01309    -0.01666     0.02669
  
  S  C   9  -0.00782     0.21962     0.01655    -0.01264    -0.00850    -0.00660
 PX  C   9   0.02770     0.02246     0.10306    -0.17953    -0.15098    -0.18069
 PY  C   9  -0.00973    -0.09291    -0.21599    -0.09201    -0.08023    -0.10373
 PZ  C   9   0.00367     0.00901    -0.00119     0.01308    -0.00727     0.01997
  
  S  C  10   0.01263     0.23422     0.01600    -0.00680    -0.00019     0.00700
 PX  C  10   0.01290    -0.03176    -0.09759     0.17742    -0.14760    -0.17560
 PY  C  10   0.01196     0.07682     0.21843     0.08488    -0.07733    -0.09312
 PZ  C  10   0.00135     0.00439    -0.00920     0.01122    -0.00401     0.00714
  
  S  C  11  -0.14233    -0.09071    -0.05998     0.22371     0.09668    -0.14352
 PX  C  11  -0.10855    -0.15412     0.05055    -0.06114     0.18170     0.09722
 PY  C  11   0.07395    -0.07995     0.17125    -0.06553    -0.11023     0.12763
 PZ  C  11   0.00098     0.00145    -0.00778     0.01079     0.00407    -0.00219
  
  S  H  12  -0.14364    -0.04723    -0.11580     0.12773     0.16911    -0.12088
  
  S  C  13  -0.12424    -0.11182    -0.08480    -0.19232     0.08994    -0.13650
 PX  C  13   0.03983    -0.12855     0.18529     0.07601     0.00009     0.15752
 PY  C  13  -0.12176    -0.07988    -0.04234     0.04425     0.22265     0.03317
 PZ  C  13   0.00318     0.00273     0.00757     0.01283    -0.00986     0.01694
  
  S  H  14   0.13165    -0.06035    -0.12281    -0.10963    -0.17715     0.11724
  
  S  H  15   0.05948    -0.15113     0.10203    -0.16927     0.01337    -0.19155
  
  S  H  16   0.20303     0.08516     0.19020     0.04964     0.11093    -0.06656
  
  S  H  17   0.19587     0.07947     0.17851    -0.07755     0.12414    -0.07308
  
  S  H  18   0.05582    -0.14904     0.12328     0.16454    -0.00893    -0.18195
  
  S  H  19   0.12831    -0.05183    -0.10746     0.12139    -0.17078     0.12040
  
  S  H  20  -0.14562    -0.06327    -0.12399    -0.09105     0.17738    -0.10171
  
  S  C  21  -0.18501     0.16748     0.11392    -0.14568    -0.11582    -0.03378
 PX  C  21  -0.08019     0.02073     0.15463     0.14366    -0.18388    -0.03936
 PY  C  21   0.16178     0.04160    -0.14376     0.11339    -0.01739    -0.16620
 PZ  C  21   0.01027    -0.00399    -0.01551     0.00252     0.01582    -0.00128
  
  S  C  22   0.03202    -0.11977     0.01151     0.16817     0.05469     0.01391
 PX  C  22  -0.08850    -0.11819     0.17373     0.09836    -0.01984     0.25403
 PY  C  22   0.11230    -0.19749    -0.12250    -0.02964     0.24737     0.08010
 PZ  C  22   0.00694    -0.00530    -0.00884     0.00200     0.01006    -0.00133
  
  S  C  23   0.02234    -0.14762    -0.01744    -0.15140     0.05494     0.01654
 PX  C  23   0.05379    -0.22995    -0.01299     0.00699     0.20579     0.21008
 PY  C  23  -0.13931    -0.02171     0.19207    -0.14010    -0.13992     0.18633
 PZ  C  23  -0.00804     0.01084     0.00958    -0.00247    -0.01821    -0.00077
  
  S  C  24  -0.16294     0.18032     0.11655     0.10668    -0.11576    -0.04072
 PX  C  24   0.08534     0.01836    -0.08293    -0.16632    -0.10317    -0.17777
 PY  C  24  -0.17486    -0.01063     0.20264    -0.10223    -0.16042     0.05503
 PZ  C  24  -0.01108     0.00220     0.01659     0.00652    -0.01142     0.01547
  
  S  H  25  -0.20534     0.06742     0.18912    -0.08123    -0.11375     0.06695
  
  S  H  26  -0.04340    -0.12760     0.12669     0.15672     0.00206     0.19278
  
  S  H  27  -0.04993    -0.15668     0.10019    -0.16346     0.00815     0.20546
  
  S  H  28  -0.21014     0.07994     0.20176     0.04672    -0.11768     0.07532
  
  S  C  29   0.08436    -0.10396    -0.01165    -0.09541     0.03757     0.15364
 PX  C  29  -0.11097     0.14422    -0.08036    -0.16331     0.11379    -0.05352
 PY  C  29   0.23847     0.09184    -0.13274    -0.01857    -0.09154     0.01862
 PZ  C  29   0.00448    -0.00775    -0.00042     0.01909     0.00146     0.00480
  
  S  C  30   0.13196    -0.08485    -0.00340     0.09948     0.03483     0.15145
 PX  C  30   0.13301     0.15828    -0.14766     0.10117    -0.01242    -0.01353
 PY  C  30  -0.19201     0.09404     0.01243     0.13242     0.14761    -0.05672
 PZ  C  30  -0.00370     0.00498     0.00543     0.01649    -0.00355     0.01036




    ROOT NO.   19          20          21          22          23          24

           -18.32158   -17.28845   -16.84356   -16.57585   -15.98571   -15.12846
  
  
  S  C   1   0.14588     0.02979    -0.01148     0.12319    -0.03871     0.03520
 PX  C   1  -0.05534    -0.19142    -0.00578    -0.04082    -0.21128     0.19999
 PY  C   1  -0.15761     0.16775    -0.01251    -0.07027    -0.14599     0.08719
 PZ  C   1  -0.01856    -0.01028     0.00223    -0.02584    -0.04745     0.02383
  
  S  C   2  -0.16364    -0.00896    -0.01618    -0.07605    -0.00896     0.06203
 PX  C   2  -0.11717     0.18297     0.00137    -0.04685     0.22237    -0.17450
 PY  C   2   0.01430     0.06171    -0.08636     0.27679     0.02629     0.24602
 PZ  C   2  -0.00958     0.01141     0.00786    -0.02854    -0.01240    -0.01682
  
  S  C   3   0.05224    -0.06065    -0.08256     0.21400     0.06880     0.01242
 PX  C   3   0.16717     0.04886    -0.00437     0.05344    -0.20555    -0.13114
 PY  C   3   0.08264    -0.24646     0.04330    -0.10005     0.00200    -0.07202
 PZ  C   3   0.00503     0.00814     0.00286    -0.00542    -0.03363     0.00151
  
  S  C   4  -0.04591    -0.01865     0.07629    -0.20598     0.09581    -0.01798
 PX  C   4  -0.11668    -0.22853     0.00452     0.00030    -0.13127     0.14555
 PY  C   4  -0.12186     0.17515     0.02794    -0.09431    -0.15802     0.08204
 PZ  C   4  -0.02825     0.01319    -0.00578    -0.00130    -0.05088     0.02363
  
  S  C   5   0.16510     0.03253     0.01294     0.07636     0.00741    -0.05288
 PX  C   5   0.01253     0.21793     0.02911    -0.14174     0.16966    -0.12259
 PY  C   5   0.06412     0.08064    -0.08766     0.22725     0.14045     0.27464
 PZ  C   5  -0.00968     0.01821    -0.00505    -0.00477    -0.01161     0.01075
  
  S  C   6  -0.15058     0.01140     0.01373    -0.12388    -0.03447    -0.03731
 PX  C   6   0.16341     0.06719     0.04136     0.05102    -0.22784    -0.16894
 PY  C   6   0.03503    -0.24525     0.03950    -0.04444    -0.08043    -0.10012
 PZ  C   6  -0.00183    -0.00667     0.00259    -0.01037    -0.03426    -0.00200
  
  S  C   7   0.10252    -0.01521     0.01159    -0.05051    -0.08756     0.01728
 PX  C   7  -0.14973    -0.04954     0.05050    -0.19035     0.14384     0.12456
 PY  C   7  -0.12003    -0.09939    -0.20317     0.14092     0.03525    -0.03610
 PZ  C   7  -0.01960     0.00207     0.01478    -0.03222     0.00826     0.02989
  
  S  C   8  -0.07680    -0.06015     0.00790     0.04053    -0.09070    -0.00839
 PX  C   8   0.17841    -0.04097     0.13414    -0.03092     0.13317    -0.06802
 PY  C   8   0.08113    -0.04686    -0.15672     0.26312     0.06220    -0.13140
 PZ  C   8  -0.00163     0.00331    -0.02594     0.04756    -0.01728    -0.00529
  
  S  C   9   0.13484     0.14101     0.16738    -0.03548     0.09926     0.05315
 PX  C   9  -0.06461     0.12439    -0.04449    -0.00426    -0.05459     0.09546
 PY  C   9   0.09369    -0.23271     0.07441    -0.05787     0.09783     0.05703
 PZ  C   9   0.00363     0.00904     0.00204     0.02047    -0.00043     0.01466
  
  S  C  10  -0.16765     0.08678    -0.19634     0.06816     0.06730    -0.05744
 PX  C  10  -0.02545    -0.13670    -0.03971     0.03758     0.05102    -0.09908
 PY  C  10   0.06626     0.25894     0.06476     0.02186    -0.08359    -0.01626
 PZ  C  10  -0.00331    -0.00188     0.00935    -0.00199     0.00744     0.02329
  
  S  C  11   0.10086    -0.02875     0.05151     0.02843    -0.06687    -0.03243
 PX  C  11   0.16569     0.10657     0.15929    -0.05990    -0.11514     0.10869
 PY  C  11   0.07916     0.03785    -0.31035    -0.10817    -0.15072    -0.15925
 PZ  C  11   0.00808    -0.00429     0.02030    -0.00025     0.00834     0.03024
  
  S  H  12   0.05572    -0.00500     0.33321     0.06921     0.03003     0.15323
  
  S  C  13  -0.10067    -0.03160    -0.03844    -0.04835    -0.07422     0.03669
 PX  C  13  -0.14615     0.04662     0.18304     0.12615    -0.16683     0.08967
 PY  C  13  -0.11832     0.03693    -0.29143    -0.01560    -0.06135    -0.17837
 PZ  C  13   0.01102     0.00667     0.01857     0.01369     0.00514     0.02901
  
  S  H  14   0.07791     0.04423     0.19160    -0.21705    -0.01567     0.08669
  
  S  H  15   0.20736    -0.02950     0.00787     0.12904     0.17939    -0.14448
  
  S  H  16  -0.13364     0.02661     0.06453    -0.27429     0.06226    -0.23569
  
  S  H  17   0.11907    -0.01490    -0.07760     0.27657     0.03738     0.24518
  
  S  H  18  -0.20416    -0.06111    -0.02723    -0.10542     0.17667     0.13123
  
  S  H  19  -0.05009    -0.04998    -0.18134     0.23914    -0.06212    -0.07202
  
  S  H  20  -0.07570    -0.01155    -0.32206    -0.08656    -0.02169    -0.15530
  
  S  C  21  -0.17775     0.00142     0.03228     0.07682    -0.00591    -0.00073
 PX  C  21   0.04723    -0.18401     0.13992     0.08374    -0.14945    -0.17229
 PY  C  21   0.10282    -0.09379    -0.14533    -0.13512    -0.09742     0.19385
 PZ  C  21   0.01876     0.01052    -0.01988    -0.02411     0.01102     0.04670
  
  S  C  22   0.15619     0.03553    -0.07751    -0.09053    -0.03341     0.06853
 PX  C  22   0.16698    -0.05852    -0.02044    -0.06899     0.24014    -0.04423
 PY  C  22  -0.02218     0.24753     0.01154     0.03521     0.03601    -0.04068
 PZ  C  22   0.00978     0.00958    -0.00674    -0.01063     0.00453     0.02430
  
  S  C  23  -0.15433     0.00289     0.07165     0.08535    -0.04881    -0.06052
 PX  C  23  -0.09028     0.16015    -0.02163     0.06223     0.18576     0.06158
 PY  C  23  -0.13208    -0.20757     0.04213     0.05676     0.19837    -0.01231
 PZ  C  23   0.01228    -0.01738    -0.00400    -0.01283     0.00773     0.02160
  
  S  C  24   0.16729     0.03100    -0.02074    -0.05797    -0.00126    -0.00104
 PX  C  24  -0.08032    -0.17474     0.07161     0.00723    -0.20584    -0.08331
 PY  C  24   0.03937    -0.10397    -0.17916    -0.16229    -0.02885     0.23286
 PZ  C  24   0.02377    -0.00049    -0.01916    -0.02171     0.02316     0.04796
  
  S  H  25  -0.13642    -0.01412     0.19489     0.17778     0.00111    -0.23131
  
  S  H  26   0.21319    -0.04235    -0.05321    -0.10441     0.18682    -0.00708
  
  S  H  27  -0.20605    -0.08819     0.05704     0.10978     0.20100    -0.01289
  
  S  H  28   0.14170     0.01446    -0.18504    -0.15658     0.06618     0.21618
  
  S  C  29   0.05561    -0.03564    -0.18038    -0.11845     0.07132     0.02971
 PX  C  29  -0.15910     0.20139    -0.02643     0.01323     0.12242     0.15623
 PY  C  29  -0.09977    -0.20210     0.08861     0.04815     0.22042     0.04449
 PZ  C  29   0.03037    -0.00632     0.00353    -0.01071     0.00082     0.02349
  
  S  C  30  -0.04348    -0.05983     0.18518     0.11585     0.07150    -0.04450
 PX  C  30   0.16012    -0.03863    -0.07263    -0.03977     0.23224    -0.13745
 PY  C  30   0.02608     0.27732     0.05850     0.08214    -0.02017    -0.08044
 PZ  C  30   0.02632     0.00827     0.00248    -0.00331     0.01749     0.02746




    ROOT NO.   25          26          27          28          29          30

           -14.87876   -14.82067   -14.76386   -14.46075   -13.87459   -13.48006
  
  
  S  C   1   0.02111    -0.06016     0.01738     0.01864    -0.04579     0.00632
 PX  C   1  -0.17378     0.00689    -0.08962    -0.02384    -0.14479     0.03222
 PY  C   1   0.18183    -0.08193    -0.18040    -0.01895    -0.10857     0.07123
 PZ  C   1   0.00665     0.06182    -0.02860     0.12145    -0.10390    -0.22489
  
  S  C   2   0.01538     0.00285    -0.09375     0.00284     0.01133    -0.00796
 PX  C   2   0.16486    -0.00361     0.04292    -0.00198     0.18480    -0.00024
 PY  C   2  -0.10371    -0.16106    -0.02100     0.07953     0.06731    -0.05045
 PZ  C   2   0.03162     0.08119    -0.00321     0.16123    -0.07916    -0.25216
  
  S  C   3  -0.02806     0.01874     0.03691    -0.03396    -0.00191     0.02367
 PX  C   3   0.17518     0.07668     0.00842    -0.08354    -0.24310     0.06633
 PY  C   3  -0.12166     0.12451     0.05000    -0.03393    -0.03993     0.00952
 PZ  C   3   0.03153     0.11466     0.00383     0.25261    -0.09801    -0.28988
  
  S  C   4  -0.07224     0.00324     0.00226     0.01262    -0.00921     0.00308
 PX  C   4  -0.11716    -0.09409     0.05050     0.00704    -0.15872     0.06952
 PY  C   4   0.11995    -0.14036    -0.06431    -0.01098    -0.16168     0.07808
 PZ  C   4   0.02639     0.12109    -0.00153     0.25253    -0.10624    -0.28194
  
  S  C   5   0.07728    -0.03705     0.03210     0.02134     0.02735    -0.01699
 PX  C   5   0.07220     0.08533    -0.08144    -0.02037     0.14510    -0.03897
 PY  C   5   0.00813    -0.18162    -0.19948     0.07629     0.06408    -0.00867
 PZ  C   5   0.01574     0.08350    -0.01635     0.15810    -0.07320    -0.25153
  
  S  C   6   0.02103     0.04495    -0.01589    -0.03411    -0.03920     0.02846
 PX  C   6   0.21154    -0.04302     0.13478    -0.03510    -0.12699     0.07414
 PY  C   6  -0.16291     0.10754     0.19154    -0.03580    -0.02803    -0.00361
 PZ  C   6   0.00996     0.06800     0.00208     0.12186    -0.08770    -0.22986
  
  S  C   7  -0.03687     0.03721    -0.04736    -0.00046     0.00759    -0.00556
 PX  C   7  -0.17105    -0.07585    -0.05970     0.02811     0.25787    -0.02124
 PY  C   7   0.20292     0.22572    -0.23163    -0.09739     0.09662     0.01146
 PZ  C   7  -0.00670     0.07579     0.00352     0.24007     0.00138    -0.14893
  
  S  C   8  -0.01702    -0.01301     0.08010    -0.00517     0.02232     0.00324
 PX  C   8   0.04455    -0.19281     0.08697     0.09629     0.21017    -0.05266
 PY  C   8  -0.03971     0.26217     0.01827    -0.11832     0.15632    -0.03078
 PZ  C   8   0.01180     0.16406     0.01507     0.21811    -0.01306    -0.15083
  
  S  C   9  -0.01134    -0.02262     0.00832    -0.00566    -0.01125    -0.01837
 PX  C   9  -0.05604     0.20809    -0.09944    -0.08643    -0.22009     0.03824
 PY  C   9  -0.06794     0.12765    -0.07585    -0.06524    -0.10240     0.04619
 PZ  C   9   0.01567     0.14579     0.02948     0.29347     0.02151     0.01519
  
  S  C  10  -0.00377     0.03147    -0.01682    -0.00300    -0.00804     0.00808
 PX  C  10  -0.12659    -0.12093     0.22274     0.02901    -0.21582     0.04529
 PY  C  10  -0.02838    -0.09974     0.14547     0.05133    -0.13169    -0.01577
 PZ  C  10   0.01651     0.10845     0.02201     0.28986     0.01005     0.00765
  
  S  C  11   0.05644    -0.03519     0.03680     0.01346    -0.01213    -0.00383
 PX  C  11   0.11807     0.09170    -0.19667    -0.02937     0.21242    -0.05108
 PY  C  11  -0.23036    -0.08167    -0.01956     0.08218     0.13834     0.01033
 PZ  C  11   0.03903     0.08783     0.01133     0.22424     0.01647     0.15141
  
  S  H  12   0.24766     0.08296    -0.04757    -0.05967    -0.02732    -0.02623
  
  S  C  13   0.03177     0.00635    -0.05517     0.01084    -0.00652     0.01844
 PX  C  13   0.02365     0.06698     0.13471    -0.05155     0.26291    -0.04275
 PY  C  13   0.09179    -0.26305     0.03969     0.15035     0.07802    -0.02518
 PZ  C  13   0.00650     0.13098     0.03005     0.23348     0.02992     0.16684
  
  S  H  14  -0.23487    -0.18710     0.13437     0.09474     0.03663    -0.02628
  
  S  H  15  -0.05678     0.02813     0.19766     0.02295     0.14166    -0.04962
  
  S  H  16   0.15476     0.12323    -0.00650    -0.05573     0.03259     0.02965
  
  S  H  17   0.00923    -0.19399    -0.11004     0.07460     0.00796     0.00629
  
  S  H  18  -0.19270     0.06686    -0.12301     0.01238     0.10271    -0.05597
  
  S  H  19  -0.04980     0.28489     0.00865    -0.10973     0.03998    -0.01459
  
  S  H  20   0.07502    -0.22822    -0.04624     0.12616    -0.05700    -0.00338
  
  S  C  21  -0.02488     0.00281     0.11498     0.00547    -0.01953     0.02060
 PX  C  21   0.00892    -0.10605    -0.07650     0.09035     0.13907     0.00991
 PY  C  21   0.27267    -0.02443     0.21991    -0.02033     0.11481    -0.06116
 PZ  C  21   0.03678     0.06926     0.01396     0.14405     0.01565     0.24563
  
  S  C  22   0.00924     0.03533     0.00902    -0.03293     0.04538    -0.02332
 PX  C  22   0.00714    -0.00696    -0.27402    -0.00143    -0.16622     0.00808
 PY  C  22  -0.27226     0.10252    -0.06457    -0.04804    -0.06816     0.03245
 PZ  C  22   0.01095     0.05499     0.00037     0.11396     0.01133     0.23308
  
  S  C  23  -0.02240    -0.02791    -0.00067     0.02943     0.04042     0.00796
 PX  C  23  -0.04468     0.04106     0.28485    -0.02985    -0.10060     0.02947
 PY  C  23   0.23280    -0.11804     0.06485     0.04433    -0.08838    -0.02470
 PZ  C  23   0.02484     0.05025    -0.00961     0.12066     0.01088     0.23898
  
  S  C  24  -0.07785     0.04361    -0.07860    -0.02356    -0.03971     0.00388
 PX  C  24   0.06203    -0.05830    -0.25389     0.06244     0.13638     0.00050
 PY  C  24   0.09930     0.08506     0.15517    -0.09362     0.10774    -0.03984
 PZ  C  24   0.01571     0.08501     0.03281     0.14435     0.00900     0.26451
  
  S  H  25  -0.21468    -0.03484    -0.15636     0.04711    -0.04084     0.04138
  
  S  H  26   0.02348     0.00592    -0.24939    -0.01223    -0.13172    -0.00137
  
  S  H  27   0.15928    -0.09237     0.17729     0.03887    -0.09803    -0.00311
  
  S  H  28   0.01541     0.11390     0.20097    -0.09610    -0.00081    -0.00573
  
  S  C  29   0.02205    -0.01958    -0.02830     0.00414     0.02108    -0.01108
 PX  C  29  -0.01398     0.12010     0.12837    -0.06435    -0.15214     0.03160
 PY  C  29   0.16780    -0.02211     0.02131    -0.01482    -0.16263     0.01339
 PZ  C  29   0.03353     0.09634     0.00154     0.25889     0.03812     0.30751
  
  S  C  30   0.03839    -0.01316    -0.01828     0.00618     0.02538    -0.00533
 PX  C  30  -0.01450    -0.10108    -0.11345     0.04884    -0.25693     0.02004
 PY  C  30  -0.16885     0.02062     0.02300     0.00235    -0.06556     0.00735
 PZ  C  30   0.01028     0.12049     0.01989     0.25928     0.01909     0.32263




    ROOT NO.   31          32          33          34          35          36

           -13.12653   -12.91907   -12.18816   -11.77202   -11.71795   -11.46990
  
  
  S  C   1  -0.02372     0.01696     0.01071     0.00615     0.00473    -0.00556
 PX  C   1   0.12281    -0.23502    -0.09498     0.01247    -0.00914    -0.16792
 PY  C   1  -0.22092    -0.10157     0.13876     0.13916     0.03620    -0.00911
 PZ  C   1  -0.05753    -0.05898     0.01495    -0.12885     0.26912     0.05718
  
  S  C   2  -0.02114    -0.02417    -0.01580    -0.03864    -0.01514     0.00314
 PX  C   2  -0.09055     0.23663     0.05742    -0.03547    -0.05141     0.15818
 PY  C   2   0.14778     0.12562    -0.16024    -0.20309    -0.08714     0.02267
 PZ  C   2  -0.07757    -0.00521     0.03661    -0.08721     0.20373     0.07390
  
  S  C   3   0.01633     0.03084     0.00358     0.00235     0.00869    -0.00740
 PX  C   3  -0.01747    -0.16902    -0.08178    -0.03844     0.01483    -0.24225
 PY  C   3  -0.08143    -0.13366     0.20063     0.27868     0.13597     0.04486
 PZ  C   3  -0.05970     0.02312     0.01080    -0.03403     0.03340     0.02109
  
  S  C   4   0.00056    -0.03428     0.01177     0.01245    -0.00901     0.00795
 PX  C   4  -0.07422     0.19795     0.14220     0.07938    -0.04054     0.23408
 PY  C   4   0.03518     0.09772    -0.16875    -0.25076    -0.16272    -0.03946
 PZ  C   4  -0.02623     0.05905    -0.01847    -0.06061    -0.01478     0.02871
  
  S  C   5  -0.03632     0.01548    -0.01341    -0.03139     0.01177    -0.04360
 PX  C   5   0.06855    -0.22871    -0.12533    -0.04935     0.02970    -0.22147
 PY  C   5  -0.18002    -0.12442     0.12041     0.12543     0.06940    -0.02401
 PZ  C   5  -0.02700    -0.00773    -0.02076    -0.14015     0.16855     0.05035
  
  S  C   6   0.00004    -0.00501     0.00364     0.00895    -0.02002     0.01014
 PX  C   6  -0.12517     0.23402     0.09852     0.02612    -0.04321     0.14014
 PY  C   6   0.22903     0.11907    -0.13636    -0.12405    -0.08294     0.02332
 PZ  C   6  -0.03135    -0.00436    -0.01000    -0.17046     0.24334     0.08079
  
  S  C   7  -0.00191    -0.07460    -0.01238    -0.03879    -0.03729    -0.01774
 PX  C   7  -0.00335     0.11573     0.07544     0.00405    -0.02378     0.23085
 PY  C   7  -0.13427     0.01305    -0.03681    -0.19459    -0.12117     0.01295
 PZ  C   7  -0.03289     0.05253     0.02505     0.07833    -0.12871     0.00969
  
  S  C   8  -0.00616     0.08125     0.00183    -0.04313    -0.00398    -0.03817
 PX  C   8  -0.15648    -0.06124     0.00582    -0.04709     0.08232    -0.25429
 PY  C   8   0.08560    -0.13566     0.06639     0.17590     0.14850     0.01303
 PZ  C   8   0.00982     0.02372     0.00986     0.11343    -0.12549    -0.04727
  
  S  C   9   0.01947    -0.06141    -0.00189    -0.01355     0.00158     0.00776
 PX  C   9   0.16602     0.00880     0.00115     0.08438    -0.08366     0.27437
 PY  C   9  -0.24841    -0.00709     0.09606    -0.23236    -0.15488    -0.01929
 PZ  C   9  -0.00748     0.02525     0.01028     0.18162    -0.27640    -0.14788
  
  S  C  10   0.03829     0.05314     0.00336    -0.00145     0.00419     0.00375
 PX  C  10  -0.14307     0.03062     0.09074    -0.04576     0.06623    -0.25658
 PY  C  10   0.24992    -0.05119    -0.05313     0.25615     0.12457     0.02875
 PZ  C  10  -0.02006     0.03978     0.00963     0.16020    -0.26789    -0.10694
  
  S  C  11  -0.01354    -0.07532     0.02793    -0.03751    -0.01958    -0.02782
 PX  C  11   0.13102    -0.08428    -0.06335     0.02146    -0.07032     0.24635
 PY  C  11  -0.07562    -0.10365     0.15890    -0.14276    -0.09521     0.03497
 PZ  C  11   0.01350     0.00512    -0.01726     0.08144    -0.11725    -0.03595
  
  S  H  12   0.11373     0.01446    -0.16915     0.13876     0.04433     0.08156
  
  S  C  13   0.01279     0.07391     0.03061    -0.02831    -0.01918    -0.01948
 PX  C  13   0.01459     0.10284     0.10981    -0.00033     0.12818    -0.20482
 PY  C  13   0.13305     0.00381    -0.13095     0.16153     0.11384    -0.04130
 PZ  C  13  -0.01412    -0.00286     0.01263     0.07707    -0.14627    -0.09966
  
  S  H  14   0.10595     0.00587     0.06402     0.17747     0.08153     0.09938
  
  S  H  15   0.12431     0.21485    -0.07059    -0.11267    -0.05229     0.08765
  
  S  H  16  -0.17651    -0.01141     0.16699     0.15515     0.05781     0.06619
  
  S  H  17  -0.20091     0.00467     0.17038     0.14144     0.05825     0.07571
  
  S  H  18   0.13810    -0.23111    -0.10706    -0.02550     0.02924    -0.14392
  
  S  H  19   0.13692    -0.04257     0.05797     0.18572     0.08047     0.12462
  
  S  H  20   0.10932    -0.00680    -0.16408     0.14103     0.04519     0.06795
  
  S  C  21  -0.02911    -0.01609     0.02768    -0.01561     0.01548    -0.03375
 PX  C  21  -0.10584    -0.19839    -0.17276    -0.01642    -0.05446     0.19313
 PY  C  21   0.13127    -0.15592     0.15467    -0.06877    -0.07161     0.05101
 PZ  C  21   0.05709     0.00028     0.03304    -0.11712     0.20107     0.05473
  
  S  C  22  -0.01514     0.00686    -0.00965     0.00498    -0.01598     0.00658
 PX  C  22   0.17102     0.20411     0.12053     0.02384     0.05256    -0.12441
 PY  C  22  -0.19291     0.15165    -0.17848     0.07961     0.05721    -0.05959
 PZ  C  22   0.03052     0.00745    -0.00083    -0.14821     0.28653     0.08275
  
  S  C  23  -0.00922    -0.00737    -0.00702     0.00053     0.01545    -0.00976
 PX  C  23  -0.16031    -0.19892    -0.11392    -0.03168    -0.05683     0.14208
 PY  C  23   0.20085    -0.13146     0.18447    -0.05975    -0.06869     0.03175
 PZ  C  23   0.03312     0.00870    -0.00855    -0.14772     0.29098     0.08018
  
  S  C  24  -0.00925     0.01445     0.03584    -0.02501    -0.02996     0.01741
 PX  C  24   0.13852     0.20305     0.06494     0.03818     0.10646    -0.14644
 PY  C  24  -0.15253     0.13508    -0.22141     0.11564     0.07832    -0.07659
 PZ  C  24  -0.01736    -0.01122    -0.05547    -0.10113     0.20566     0.06816
  
  S  H  25  -0.17902     0.02189    -0.22737     0.06445     0.02370     0.04355
  
  S  H  26   0.17247     0.19959     0.12601     0.02243     0.04990    -0.12311
  
  S  H  27   0.09643    -0.21262     0.10671    -0.06977    -0.08232     0.09730
  
  S  H  28  -0.19577     0.01977    -0.22149     0.06830     0.02140     0.02714
  
  S  C  29   0.00338     0.03597    -0.00898     0.00246    -0.00730     0.00394
 PX  C  29   0.10967     0.16743     0.20092    -0.00835     0.06968    -0.19968
 PY  C  29  -0.03264     0.10309    -0.26449     0.16556     0.09797    -0.03819
 PZ  C  29   0.02491    -0.03319    -0.01541    -0.03197     0.03464     0.03661
  
  S  C  30  -0.00405    -0.03034    -0.00898    -0.00529     0.01384    -0.01043
 PX  C  30   0.00255    -0.14849    -0.13044     0.01974    -0.10739     0.21445
 PY  C  30   0.08876    -0.13489     0.30435    -0.15996    -0.10313     0.02959
 PZ  C  30  -0.00089    -0.03411    -0.01618    -0.03085     0.02489     0.00634




    ROOT NO.   37          38          39          40          41          42

           -10.55689    -9.91714    -9.68368    -8.25465    -8.09300    -6.74256
  
  
  S  C   1   0.00019    -0.00189     0.00080     0.00322     0.00237    -0.00238
 PX  C   1   0.00351     0.04869     0.02442     0.01574    -0.03427    -0.02415
 PY  C   1  -0.02143     0.02217     0.03138     0.01712    -0.01969    -0.01632
 PZ  C   1   0.09294    -0.31113    -0.22547    -0.13199     0.30502     0.21717
  
  S  C   2   0.01250     0.00221    -0.02108    -0.02072     0.00033     0.00941
 PX  C   2  -0.02137    -0.01173     0.01090     0.01112    -0.00164    -0.01175
 PY  C   2   0.02327    -0.01029    -0.03912    -0.02617     0.00806     0.00990
 PZ  C   2   0.23252    -0.07997    -0.34851    -0.30602     0.09206     0.22038
  
  S  C   3  -0.01838    -0.03620     0.01691     0.01615     0.03439     0.01775
 PX  C   3   0.00252    -0.00012     0.01676     0.01116     0.01755     0.01170
 PY  C   3  -0.01499     0.00551     0.02326     0.01178    -0.01535    -0.00506
 PZ  C   3   0.25791     0.27184    -0.18782    -0.11414    -0.29778    -0.17095
  
  S  C   4  -0.00636     0.00169    -0.00121    -0.00430     0.00564    -0.00282
 PX  C   4  -0.00664    -0.02508    -0.01318     0.00465     0.01988    -0.01337
 PY  C   4   0.02085    -0.02684    -0.03554    -0.00116     0.05434    -0.00316
 PZ  C   4  -0.23240     0.23471     0.25416    -0.09397    -0.32422     0.13316
  
  S  C   5  -0.00759    -0.00309     0.01156     0.00904    -0.00393    -0.00429
 PX  C   5   0.02560     0.02724    -0.01177    -0.01570    -0.00558     0.01416
 PY  C   5  -0.00735     0.01596     0.00679    -0.00719    -0.00780     0.00659
 PZ  C   5  -0.25813    -0.16822     0.31412     0.30607    -0.09045    -0.22790
  
  S  C   6   0.00351     0.00892    -0.00289    -0.00479    -0.00166     0.00270
 PX  C   6  -0.00312    -0.00195    -0.00601    -0.00732     0.00182     0.00509
 PY  C   6   0.02332     0.00474    -0.02637    -0.01854     0.00268     0.01005
 PZ  C   6  -0.15004    -0.36590     0.13824     0.28656     0.18009    -0.17969
  
  S  C   7   0.02413     0.02179    -0.00731     0.01197    -0.00630    -0.02236
 PX  C   7  -0.06335    -0.04482     0.01406    -0.02996     0.01817     0.04967
 PY  C   7   0.01611     0.00625    -0.00752     0.00235     0.00577    -0.00381
 PZ  C   7   0.35014     0.21998    -0.12776     0.24041    -0.06277    -0.37571
  
  S  C   8  -0.00068     0.00260     0.00122    -0.00767     0.00127     0.01370
 PX  C   8  -0.01087     0.01771     0.01961    -0.00399    -0.01212     0.00912
 PY  C   8   0.05659    -0.02454    -0.02201     0.03835    -0.02004    -0.05062
 PZ  C   8  -0.31916     0.21031     0.20224    -0.22395     0.03043     0.36638
  
  S  C   9   0.00133     0.00336     0.00938     0.00051    -0.01222     0.00355
 PX  C   9  -0.00194    -0.00928    -0.01288    -0.00241     0.02076    -0.00236
 PY  C   9   0.00096     0.01461     0.01382    -0.00451     0.01380     0.01104
 PZ  C   9  -0.23901     0.01748    -0.03938    -0.09987     0.42290     0.00569
  
  S  C  10   0.01111    -0.01242    -0.00723     0.00139     0.00206    -0.00213
 PX  C  10   0.00635     0.01206     0.01522    -0.00563    -0.02289    -0.00236
 PY  C  10   0.00028    -0.00393    -0.00575     0.00919    -0.00112    -0.01384
 PZ  C  10   0.27056     0.00232     0.04701     0.34916     0.29102     0.03104
  
  S  C  11   0.00057     0.01198     0.00112     0.00642     0.00028     0.00310
 PX  C  11  -0.01561    -0.00161    -0.01646    -0.00005     0.01692    -0.00387
 PY  C  11   0.01110    -0.00335     0.01302     0.01311     0.00368     0.02251
 PZ  C  11   0.32055    -0.23826     0.22602     0.20484    -0.05902     0.38040
  
  S  H  12  -0.00555    -0.00213    -0.00971    -0.00342     0.00368    -0.00954
  
  S  C  13  -0.01303    -0.00607    -0.01116    -0.00348     0.00193    -0.00039
 PX  C  13   0.02353    -0.00134     0.00812     0.01560    -0.02493     0.01377
 PY  C  13  -0.01790    -0.01127    -0.01700    -0.00587    -0.00691    -0.01707
 PZ  C  13  -0.30272    -0.16751    -0.27514    -0.18814     0.09058    -0.35827
  
  S  H  14  -0.02818    -0.00925     0.00951    -0.00615    -0.00434     0.01034
  
  S  H  15   0.00777    -0.01521    -0.01784    -0.00880     0.00539     0.00392
  
  S  H  16  -0.02285     0.00328     0.02614     0.01466    -0.01028    -0.00753
  
  S  H  17  -0.01568     0.00398     0.00943    -0.00250    -0.00738     0.00214
  
  S  H  18   0.00921     0.01285     0.00163     0.00059    -0.00703    -0.00163
  
  S  H  19   0.02082    -0.00766    -0.00863     0.01249    -0.01056    -0.01240
  
  S  H  20  -0.01148    -0.00301    -0.00626    -0.00276     0.00268    -0.00293
  
  S  C  21   0.01083     0.00173     0.01293    -0.00683    -0.00118    -0.00418
 PX  C  21   0.00632     0.01873     0.03069    -0.03207     0.02614    -0.02137
 PY  C  21  -0.01998     0.00504    -0.02785     0.02213    -0.00090     0.01067
 PZ  C  21   0.18432     0.05616     0.34908    -0.34876     0.11578    -0.23620
  
  S  C  22  -0.00467    -0.01113    -0.00982     0.00591    -0.00980     0.00631
 PX  C  22   0.00020    -0.00894    -0.00545     0.00295    -0.00686     0.00123
 PY  C  22   0.01167    -0.01472     0.00864    -0.00364    -0.01123     0.00347
 PZ  C  22   0.08086     0.31416     0.21986    -0.14776     0.32646    -0.18500
  
  S  C  23  -0.00059     0.00119    -0.00042    -0.00133    -0.00126    -0.00313
 PX  C  23   0.00251     0.03439     0.00974     0.00943     0.02368     0.00921
 PY  C  23  -0.00690    -0.01029    -0.00825    -0.00111    -0.00802    -0.00153
 PZ  C  23  -0.09036     0.37236    -0.12382     0.28899     0.16118     0.19285
  
  S  C  24   0.00237     0.00091     0.00292     0.00136     0.00406     0.00356
 PX  C  24  -0.01561    -0.00646    -0.03022     0.01978    -0.02310     0.00987
 PY  C  24   0.02299    -0.02108     0.03201    -0.03264     0.00464    -0.02105
 PZ  C  24  -0.18106     0.17021    -0.30831     0.33339    -0.13483     0.22533
  
  S  H  25   0.00634     0.00251     0.01146    -0.00538     0.00486     0.00053
  
  S  H  26  -0.00129    -0.00889    -0.00724     0.00323    -0.00559    -0.00006
  
  S  H  27  -0.00615     0.01095    -0.00359     0.00487     0.00637     0.00338
  
  S  H  28   0.01083     0.00098     0.01556    -0.00874     0.00611    -0.00276
  
  S  C  29  -0.00416    -0.00801    -0.00142    -0.00305     0.00081     0.00090
 PX  C  29   0.01864    -0.02715     0.00328     0.00459    -0.03554     0.01307
 PY  C  29   0.00504    -0.00782     0.00709    -0.01520    -0.00501    -0.01187
 PZ  C  29   0.20841    -0.30140     0.22097    -0.14980    -0.30252     0.11997
  
  S  C  30   0.00183     0.00422     0.00030     0.00060    -0.00319    -0.00351
 PX  C  30  -0.00965     0.01362     0.00651    -0.00947     0.02811    -0.00308
 PY  C  30   0.00345     0.01579     0.00125     0.01726     0.00927     0.01611
 PZ  C  30  -0.18763    -0.22708    -0.27677    -0.05149    -0.33674    -0.13962




    ROOT NO.   43          44          45          46          47          48

            -1.03436     0.20741     0.29554     1.28988     1.35925     1.81410
  
  
  S  C   1  -0.00711    -0.00359    -0.00739     0.00696     0.00700    -0.00732
 PX  C   1   0.01731     0.02306     0.01154    -0.01390    -0.02100     0.00593
 PY  C   1   0.00945     0.01694     0.00406    -0.00780    -0.02093     0.00572
 PZ  C   1  -0.22555    -0.30119    -0.14074     0.18062     0.32755    -0.11461
  
  S  C   2   0.01821     0.02200     0.01116    -0.01407    -0.02915     0.01559
 PX  C   2  -0.01001     0.00468    -0.02522     0.02383    -0.00597    -0.01706
 PY  C   2   0.01179     0.01639     0.00120    -0.00046    -0.01898     0.00032
 PZ  C   2   0.21480     0.09302     0.31369    -0.32233    -0.10835     0.25672
  
  S  C   3  -0.02066    -0.05172     0.02460    -0.02644     0.05911     0.02302
 PX  C   3  -0.00750    -0.01557     0.01675    -0.01539     0.00921     0.00568
 PY  C   3   0.00851    -0.00299     0.01052    -0.00873     0.00340     0.01027
 PZ  C   3   0.18372     0.29923    -0.11665     0.20586    -0.25221    -0.26487
  
  S  C   4   0.00711     0.02397    -0.00838     0.01940    -0.02363    -0.03272
 PX  C   4   0.00494     0.02422    -0.00208    -0.00741    -0.01480     0.00997
 PY  C   4  -0.01871     0.01703    -0.00279    -0.02796    -0.00458     0.03333
 PZ  C   4   0.12612    -0.33216     0.08478     0.22158     0.26257    -0.26315
  
  S  C   5  -0.00092    -0.00511     0.00703    -0.01931     0.01019     0.03181
 PX  C   5  -0.01637    -0.01385    -0.01645     0.01238     0.00045    -0.00420
 PY  C   5  -0.00434    -0.00366    -0.00481     0.00397     0.00088    -0.00182
 PZ  C   5   0.22586     0.07366     0.31771    -0.31122     0.14194     0.26431
  
  S  C   6   0.00426    -0.00583     0.00811    -0.00135     0.01249    -0.00383
 PX  C   6   0.00508    -0.00515     0.00767    -0.00217     0.00824    -0.00004
 PY  C   6   0.00575    -0.00717     0.00861    -0.00083     0.01303    -0.00345
 PZ  C   6  -0.17365     0.18609    -0.29112     0.16810    -0.34756    -0.14112
  
  S  C   7  -0.01475     0.01229    -0.02557     0.00296    -0.01602     0.02362
 PX  C   7   0.03373    -0.00945     0.02829     0.00533    -0.00314    -0.01741
 PY  C   7  -0.00467    -0.00189    -0.00653     0.00063    -0.00192     0.00966
 PZ  C   7  -0.36645    -0.07751    -0.23692    -0.13632     0.21001     0.35657
  
  S  C   8  -0.01430    -0.00011    -0.00299    -0.01023    -0.00373     0.01243
 PX  C   8  -0.00915     0.00526    -0.00437    -0.00058    -0.00815    -0.00003
 PY  C   8   0.04403     0.00563     0.02432     0.02225     0.02056    -0.04569
 PZ  C   8  -0.35804    -0.02801    -0.22618    -0.15061    -0.21699     0.33248
  
  S  C   9   0.00384    -0.01799    -0.00307     0.00180     0.00462     0.00612
 PX  C   9  -0.00174     0.00692    -0.00267    -0.00395    -0.00492     0.00403
 PY  C   9  -0.00615     0.00572     0.00188    -0.00551    -0.00022    -0.01115
 PZ  C   9   0.00835     0.43221     0.10229    -0.05782     0.00534    -0.22895
  
  S  C  10   0.00830     0.00550     0.01564     0.00154     0.01135    -0.03332
 PX  C  10  -0.01020     0.00590    -0.01354    -0.00163     0.00438     0.00826
 PY  C  10  -0.00136     0.00239     0.00133     0.00090     0.00095    -0.00191
 PZ  C  10  -0.04356    -0.27637     0.36420    -0.05204    -0.01846    -0.28658
  
  S  C  11  -0.00257    -0.00086    -0.01007     0.00097    -0.00972     0.02510
 PX  C  11   0.00448    -0.00000     0.01045     0.00134     0.00274    -0.01434
 PY  C  11   0.01698    -0.00312    -0.00617     0.01272    -0.00990     0.01355
 PZ  C  11   0.38721    -0.07025    -0.19604     0.26455    -0.18699     0.30748
  
  S  H  12   0.00093    -0.00120     0.00375     0.00022     0.00077    -0.01063
  
  S  C  13   0.00177     0.00624    -0.00668     0.00331     0.00216     0.01485
 PX  C  13  -0.01082    -0.00030     0.00598    -0.00886    -0.00591    -0.01030
 PY  C  13   0.01408    -0.00996    -0.00567     0.01201     0.00928     0.01148
 PZ  C  13   0.36072    -0.09925    -0.18574     0.25511     0.20901     0.26998
  
  S  H  14   0.00979    -0.00541     0.00986     0.00192     0.00557    -0.01131
  
  S  H  15   0.00554     0.00627     0.00326    -0.00383    -0.01067     0.00400
  
  S  H  16  -0.00371    -0.00783    -0.00593     0.01083     0.00964    -0.01194
  
  S  H  17   0.00159     0.00298    -0.00619     0.01542    -0.01001    -0.02286
  
  S  H  18  -0.00171     0.00454    -0.00537     0.00158    -0.01163     0.00135
  
  S  H  19   0.00644    -0.00125    -0.00101     0.00555    -0.00354    -0.00218
  
  S  H  20  -0.00449    -0.00269     0.00562    -0.00346    -0.00708    -0.00799
  
  S  C  21  -0.00572    -0.00243     0.00697     0.01139    -0.01264     0.01439
 PX  C  21  -0.01256     0.00636     0.02391     0.02452     0.00837     0.00822
 PY  C  21   0.01449    -0.01206    -0.01885    -0.02229    -0.01214    -0.01014
 PZ  C  21  -0.23532     0.13228     0.33197     0.35326     0.11717     0.15797
  
  S  C  22  -0.00607     0.01477     0.00511     0.00389     0.02517    -0.00646
 PX  C  22   0.00023    -0.00156    -0.00047     0.00088    -0.00257     0.00202
 PY  C  22  -0.00715     0.01204     0.00491     0.00925     0.01066     0.00659
 PZ  C  22   0.18783    -0.32649    -0.13658    -0.18019    -0.34840    -0.05599
  
  S  C  23   0.00125    -0.00762    -0.00012    -0.00124    -0.00832     0.00032
 PX  C  23   0.01218     0.00705    -0.01663    -0.01137     0.01360    -0.00433
 PY  C  23  -0.00861    -0.00101     0.01133     0.00795    -0.00603     0.00230
 PZ  C  23   0.19763     0.15428    -0.28258    -0.18031     0.35458    -0.09867
  
  S  C  24  -0.00049     0.00239    -0.00052    -0.00148    -0.00012     0.00052
 PX  C  24  -0.01384     0.00688     0.01892     0.01873    -0.00379     0.00765
 PY  C  24   0.01574    -0.00999    -0.02307    -0.02602     0.01071    -0.01577
 PZ  C  24  -0.22701     0.13378     0.32613     0.34466    -0.12213     0.17584
  
  S  H  25   0.00505     0.00214    -0.00909    -0.01005     0.00583    -0.00738
  
  S  H  26   0.00410    -0.01000    -0.00502    -0.00484    -0.01886     0.00366
  
  S  H  27   0.00006     0.00382    -0.00024     0.00126     0.00236     0.00127
  
  S  H  28   0.00041     0.00197    -0.00055     0.00207    -0.00050     0.00245
  
  S  C  29   0.00633    -0.00117    -0.00207    -0.00503     0.01069    -0.01222
 PX  C  29  -0.00794     0.01488    -0.01172    -0.01837     0.01250    -0.01117
 PY  C  29  -0.00307     0.00368    -0.00665    -0.00322     0.00320     0.00668
 PZ  C  29  -0.12148     0.29879    -0.16023    -0.28253     0.26892    -0.20009
  
  S  C  30  -0.00365    -0.00123     0.00705     0.00220     0.00113    -0.00684
 PX  C  30   0.00415     0.00665    -0.00332     0.00662     0.00490     0.01103
 PY  C  30   0.00489     0.00836    -0.00130     0.00609     0.00635     0.00168
 PZ  C  30  -0.15255    -0.33490     0.05280    -0.26004    -0.27931    -0.17400




    ROOT NO.   49          50          51          52          53          54

             2.36483     2.41058     2.81945     3.14926     3.20812     3.35401
  
  
  S  C   1  -0.03455     0.10386    -0.20925     0.06801    -0.19036    -0.21517
 PX  C   1  -0.02919     0.01131    -0.00368    -0.03449     0.05041    -0.03803
 PY  C   1  -0.02709     0.01061    -0.04430    -0.00268    -0.05233     0.01308
 PZ  C   1   0.29916     0.09694     0.04646     0.23878     0.01817    -0.00073
  
  S  C   2   0.03932    -0.12986     0.19550    -0.01622     0.07445     0.21477
 PX  C   2   0.02320    -0.01572    -0.00100     0.04366    -0.06023    -0.00935
 PY  C   2   0.01431    -0.04398     0.04487     0.01055    -0.01087     0.02814
 PZ  C   2  -0.22487    -0.07388    -0.04594    -0.25631    -0.02424    -0.00970
  
  S  C   3  -0.08322     0.19185    -0.24453    -0.04152    -0.00076    -0.16228
 PX  C   3  -0.02336     0.01542     0.05189    -0.03012     0.11356    -0.05182
 PY  C   3  -0.01787     0.02998    -0.04546    -0.00662    -0.02542     0.10542
 PZ  C   3   0.03811     0.05097    -0.00933     0.29478     0.01950    -0.04357
  
  S  C   4   0.08213    -0.19104     0.28952    -0.01069     0.13270    -0.14587
 PX  C   4   0.01369    -0.01581    -0.03462     0.04382    -0.09385    -0.00463
 PY  C   4  -0.00348     0.00491    -0.03800    -0.00316    -0.00722    -0.13380
 PZ  C   4  -0.02150    -0.01033    -0.04581    -0.29832    -0.03666     0.02806
  
  S  C   5  -0.05384     0.14797    -0.28230     0.07525    -0.23963     0.07572
 PX  C   5  -0.02819     0.03580    -0.03723    -0.02816     0.02015     0.07062
 PY  C   5  -0.00063     0.00074     0.00876    -0.00729     0.02475     0.03437
 PZ  C   5   0.21458     0.06177     0.06255     0.25008     0.03647    -0.01818
  
  S  C   6   0.05418    -0.10136     0.24180    -0.07122     0.26593     0.05749
 PX  C   6   0.01554    -0.02232     0.03781    -0.00418     0.01724     0.00784
 PY  C   6   0.01442    -0.00511     0.00534     0.01055    -0.00667    -0.09673
 PZ  C   6  -0.29513    -0.09743    -0.04213    -0.24378    -0.00923     0.01101
  
  S  C   7   0.10848    -0.22584     0.13196     0.01080    -0.21625     0.19419
 PX  C   7  -0.00347    -0.01850    -0.07384    -0.00118    -0.09568    -0.01439
 PY  C   7   0.02841    -0.06178    -0.01371    -0.00050    -0.08548     0.01327
 PZ  C   7   0.11932     0.07077    -0.01927    -0.13975     0.01258    -0.01961
  
  S  C   8  -0.07718     0.20271    -0.15543     0.02896     0.03755     0.28202
 PX  C   8  -0.01305     0.04868     0.04801     0.01203     0.09765     0.07396
 PY  C   8   0.03220    -0.01775     0.05885    -0.01460     0.03867     0.00247
 PZ  C   8  -0.16073    -0.07325     0.04713     0.14119     0.03741    -0.04003
  
  S  C   9   0.09028    -0.27515     0.05039    -0.03333    -0.22450    -0.30197
 PX  C   9   0.01137    -0.02063    -0.07203     0.01269    -0.06402     0.06432
 PY  C   9  -0.01610     0.03974    -0.03180     0.00716     0.11926    -0.12039
 PZ  C   9   0.34978     0.13176    -0.02289     0.01910    -0.02765    -0.00823
  
  S  C  10  -0.12319     0.29458    -0.01649     0.00854     0.36829    -0.10617
 PX  C  10   0.00058     0.00238     0.08517    -0.00465    -0.01197    -0.08833
 PY  C  10   0.00005     0.02084     0.02322     0.00794     0.01074     0.16213
 PZ  C  10  -0.30098    -0.14380     0.01409    -0.01455    -0.01047     0.01791
  
  S  C  11   0.11642    -0.25845    -0.13963    -0.00420    -0.19844     0.20139
 PX  C  11  -0.01583     0.04210    -0.07095     0.00376     0.13628    -0.00059
 PY  C  11   0.02128    -0.02872    -0.05878     0.01282     0.04920     0.01458
 PZ  C  11   0.11583     0.06392     0.00995     0.15377     0.01427    -0.02172
  
  S  H  12  -0.06347     0.14997     0.08617     0.01185     0.12445    -0.08937
  
  S  C  13  -0.08375     0.22607     0.08134    -0.00562     0.03268     0.31965
 PX  C  13   0.00263     0.01041     0.08736    -0.00835    -0.09639    -0.01585
 PY  C  13   0.00961    -0.05557     0.03085    -0.01913    -0.06147    -0.04902
 PZ  C  13  -0.17391    -0.06927    -0.00253    -0.16270    -0.00083    -0.00480
  
  S  H  14  -0.05711     0.12235    -0.08703    -0.00203     0.12211    -0.07767
  
  S  H  15   0.01704    -0.06966     0.13253    -0.04986     0.11779     0.14943
  
  S  H  16  -0.02213     0.06479    -0.11615     0.00949    -0.06379    -0.10347
  
  S  H  17   0.02807    -0.09095     0.18467    -0.05610     0.16235    -0.01731
  
  S  H  18  -0.03959     0.06091    -0.15077     0.03666    -0.17016    -0.02122
  
  S  H  19   0.03647    -0.10796     0.08080    -0.00905    -0.04586    -0.12896
  
  S  H  20   0.05179    -0.12726    -0.05515     0.01447    -0.03960    -0.15752
  
  S  C  21   0.08239    -0.18100    -0.25208     0.04544     0.16326     0.22113
 PX  C  21  -0.03763     0.04874     0.03783     0.00733     0.04263    -0.02496
 PY  C  21   0.01886     0.01182    -0.00934    -0.03011     0.03207    -0.00710
 PZ  C  21  -0.21712    -0.09908     0.02270     0.24363     0.01015    -0.00463
  
  S  C  22  -0.08095     0.10984     0.20448     0.01718    -0.22090    -0.13675
 PX  C  22   0.01224    -0.03096    -0.03505     0.00954     0.02286     0.00501
 PY  C  22  -0.00101    -0.02751    -0.01725     0.02532    -0.03437     0.08533
 PZ  C  22   0.29090     0.15104     0.00069    -0.23095    -0.03423    -0.01312
  
  S  C  23   0.05397    -0.10888    -0.17846    -0.01586     0.25355    -0.06707
 PX  C  23  -0.01669     0.01396     0.00266     0.01648     0.00869     0.08852
 PY  C  23  -0.00656     0.02314     0.03544    -0.00341    -0.03026    -0.04933
 PZ  C  23  -0.29719    -0.14966     0.00878     0.24106     0.02157     0.00687
  
  S  C  24  -0.06353     0.14539     0.18221     0.02840    -0.19746     0.19125
 PX  C  24   0.01558    -0.01574     0.00224    -0.01188    -0.04091    -0.04322
 PY  C  24   0.00259    -0.05854    -0.04155     0.02243     0.02184    -0.04576
 PZ  C  24   0.21164     0.10676    -0.01264    -0.25828    -0.01702    -0.01174
  
  S  H  25  -0.04150     0.11018     0.16378    -0.04292    -0.13251    -0.12377
  
  S  H  26   0.05797    -0.06549    -0.12732    -0.02369     0.13151     0.09624
  
  S  H  27  -0.02920     0.07296     0.11331     0.00037    -0.16696     0.05315
  
  S  H  28   0.04012    -0.07504    -0.11044    -0.02639     0.11450    -0.08410
  
  S  C  29  -0.11610     0.25201     0.27505    -0.02801    -0.05615    -0.16180
 PX  C  29   0.01230    -0.02044     0.02996    -0.02823    -0.07515    -0.08396
 PY  C  29   0.00346    -0.00595     0.03529    -0.00350    -0.10560     0.13011
 PZ  C  29   0.06216     0.02445    -0.02546    -0.31543    -0.01703     0.01625
  
  S  C  30   0.08805    -0.22862    -0.22735     0.00827     0.14282    -0.20881
 PX  C  30   0.00093     0.00047    -0.06510    -0.00195     0.06172     0.09994
 PY  C  30  -0.01371     0.03797     0.02922    -0.02286     0.04379    -0.11017
 PZ  C  30  -0.03744    -0.02524     0.02063     0.32472     0.01475    -0.00105




    ROOT NO.   55          56          57          58          59          60

             3.51549     3.61344     3.71504     3.88271     4.09747     4.22559
  
  
  S  C   1  -0.14719    -0.18789     0.28037     0.11162     0.09016     0.07327
 PX  C   1   0.06322     0.04751    -0.06202     0.12290     0.05984     0.09542
 PY  C   1  -0.01995    -0.03691     0.03071    -0.06557    -0.03184    -0.01477
 PZ  C   1  -0.11692     0.07424    -0.04135     0.01081    -0.00259     0.01895
  
  S  C   2  -0.01598     0.02623    -0.03260    -0.30940    -0.16840    -0.25435
 PX  C   2  -0.08838    -0.08007     0.12807    -0.05024    -0.00401    -0.01053
 PY  C   2  -0.04196    -0.04255     0.07707    -0.02672     0.01589     0.04825
 PZ  C   2   0.14398    -0.10465     0.06764     0.00080     0.01637     0.00400
  
  S  C   3   0.15550     0.14108    -0.24043     0.26186     0.07941     0.01130
 PX  C   3   0.00701     0.02021     0.05638     0.00274    -0.00647    -0.17183
 PY  C   3   0.04097     0.05272    -0.12521    -0.11721    -0.07531    -0.03344
 PZ  C   3  -0.21039     0.17574    -0.12400     0.08225     0.00578     0.01840
  
  S  C   4  -0.11222    -0.13927     0.31824     0.06447     0.05508    -0.08492
 PX  C   4  -0.06721    -0.03203    -0.00449    -0.12119    -0.08907    -0.16415
 PY  C   4   0.02594     0.03567    -0.07453     0.13416     0.03214    -0.08912
 PZ  C   4   0.24125    -0.15131     0.06918    -0.04656     0.00353    -0.05143
  
  S  C   5  -0.05738    -0.00106    -0.12088    -0.24677    -0.17213    -0.24663
 PX  C   5   0.07954     0.08116    -0.13675     0.03018     0.02229     0.07387
 PY  C   5   0.03631     0.05956    -0.10310    -0.02824    -0.04292    -0.08583
 PZ  C   5  -0.14632     0.08962    -0.03496     0.03542     0.00815     0.04029
  
  S  C   6   0.16390     0.19658    -0.23113     0.14821     0.05174     0.03813
 PX  C   6  -0.00310    -0.01333     0.02826    -0.00757     0.00602     0.04502
 PY  C   6  -0.04141    -0.06789     0.13410     0.10828     0.08247     0.09934
 PZ  C   6   0.12940    -0.06079     0.02030    -0.00591     0.00418    -0.01377
  
  S  C   7  -0.05521    -0.16116     0.01356    -0.15308    -0.04511     0.31784
 PX  C   7   0.03455     0.02997    -0.12656     0.10044     0.03992     0.06701
 PY  C   7   0.01212    -0.00095    -0.06340     0.05270     0.02830    -0.04035
 PZ  C   7   0.21354    -0.10535     0.04862    -0.01260     0.01308    -0.04214
  
  S  C   8   0.06130     0.08631    -0.04502    -0.12729    -0.00317     0.37407
 PX  C   8  -0.03329    -0.01443     0.14440    -0.00701     0.04429    -0.02095
 PY  C   8   0.00038    -0.04419     0.09001    -0.00643     0.01824     0.04677
 PZ  C   8  -0.22544     0.11948    -0.03056     0.04012    -0.01462     0.02652
  
  S  C   9   0.02839    -0.04573    -0.23468     0.11898    -0.11380    -0.07750
 PX  C   9   0.03586     0.03263    -0.06589    -0.05656    -0.02851     0.18328
 PY  C   9   0.02670     0.04056     0.05415    -0.04307    -0.12331    -0.00129
 PZ  C   9   0.29727    -0.14811     0.01917    -0.02845     0.02667    -0.04370
  
  S  C  10  -0.00898     0.05859     0.21146    -0.06043    -0.08715    -0.08631
 PX  C  10  -0.00717    -0.09138    -0.05155    -0.04990    -0.15880     0.09190
 PY  C  10  -0.02490    -0.02771     0.08049    -0.09590     0.04014     0.12419
 PZ  C  10  -0.27971     0.13009    -0.04335     0.02649    -0.02730     0.03520
  
  S  C  11   0.02584     0.16469     0.03731     0.08265     0.33233    -0.13279
 PX  C  11   0.00959     0.08317     0.13387     0.01206     0.01217    -0.05618
 PY  C  11   0.02389     0.03333     0.06366     0.00584    -0.08349     0.02277
 PZ  C  11   0.21306    -0.09494     0.01658    -0.02335     0.03237    -0.02120
  
  S  H  12  -0.01507    -0.14106    -0.02301    -0.04675    -0.30485     0.14425
  
  S  C  13  -0.10962    -0.08703     0.06034     0.05898     0.30783    -0.14124
 PX  C  13  -0.00795    -0.09027    -0.09990     0.10622    -0.03948    -0.03388
 PY  C  13  -0.01525    -0.02178    -0.05953     0.06029     0.02834    -0.05218
 PZ  C  13  -0.23193     0.11493    -0.01715     0.02338    -0.05105     0.03703
  
  S  H  14   0.03110     0.11937    -0.01307     0.08202     0.04487    -0.28685
  
  S  H  15   0.10068     0.11640    -0.18001    -0.07170    -0.05163     0.00329
  
  S  H  16   0.00868    -0.02606     0.02202     0.18843     0.11725     0.23180
  
  S  H  17   0.04523    -0.00595     0.09997     0.17279     0.14475     0.27096
  
  S  H  18  -0.09989    -0.13560     0.16140    -0.10026    -0.02451     0.03318
  
  S  H  19  -0.05701    -0.05222     0.02528     0.06424     0.01615    -0.31193
  
  S  H  20   0.08606     0.05443    -0.03539    -0.02476    -0.26134     0.14207
  
  S  C  21  -0.00718    -0.07569     0.10091     0.26224    -0.27602    -0.03119
 PX  C  21  -0.04173    -0.14423    -0.10346     0.03560    -0.04257    -0.00969
 PY  C  21  -0.05507    -0.07628    -0.07899    -0.02926     0.08423    -0.00490
 PZ  C  21   0.13979    -0.06450    -0.00550    -0.02505     0.05618    -0.01366
  
  S  C  22   0.14824     0.30976     0.16588    -0.13405     0.00848     0.04475
 PX  C  22   0.01011     0.00503     0.01824     0.00441    -0.04694     0.01450
 PY  C  22   0.04470     0.06547     0.10224     0.11918    -0.12951    -0.01801
 PZ  C  22  -0.09860     0.08209     0.01962     0.00493    -0.03599     0.01285
  
  S  C  23  -0.13658    -0.28352    -0.23236    -0.12030     0.13436     0.02326
 PX  C  23  -0.02277    -0.10195    -0.03574     0.12150    -0.07267    -0.02399
 PY  C  23   0.02190     0.04956     0.01331    -0.06052     0.01645     0.02338
 PZ  C  23   0.11559    -0.05704    -0.00066    -0.01461     0.03363    -0.00968
  
  S  C  24   0.04903    -0.01612     0.06130     0.31516    -0.24562    -0.05080
 PX  C  24   0.04672     0.14591     0.09647    -0.03561    -0.02014     0.00921
 PY  C  24   0.04107     0.06657     0.05628    -0.01594    -0.04974     0.00263
 PZ  C  24  -0.14822     0.06898    -0.00534     0.01392    -0.04185     0.01600
  
  S  H  25  -0.00726     0.06309    -0.07645    -0.19600     0.27871     0.00887
  
  S  H  26  -0.10784    -0.19534    -0.11436     0.07964     0.04773    -0.04255
  
  S  H  27   0.07844     0.19024     0.15154     0.07386    -0.05118    -0.02562
  
  S  H  28  -0.04338     0.01710    -0.03224    -0.20512     0.21405     0.02182
  
  S  C  29  -0.07213    -0.23599    -0.24979    -0.06286    -0.00209     0.03915
 PX  C  29   0.01492     0.10425    -0.00646    -0.13643     0.15549     0.01411
 PY  C  29  -0.02078    -0.02828    -0.03168     0.10393     0.11831    -0.07625
 PZ  C  29  -0.24834     0.10805    -0.00762     0.03075    -0.06168     0.02623
  
  S  C  30   0.08682     0.24383     0.15162    -0.22082    -0.03926     0.08207
 PX  C  30  -0.03419     0.01782     0.04921    -0.03143     0.14944    -0.04093
 PY  C  30  -0.04142    -0.07075    -0.10213    -0.13154     0.06903     0.04296
 PZ  C  30   0.25695    -0.12060     0.00873    -0.02573     0.06052    -0.03056




    ROOT NO.   61          62          63          64          65          66

             5.12894     5.31040     5.35308     5.60150     6.09854     6.41840
  
  
  S  C   1  -0.01979    -0.21023    -0.18985    -0.14833    -0.04916    -0.02207
 PX  C   1  -0.10865     0.01397     0.08126     0.20359     0.10926     0.04987
 PY  C   1   0.07930     0.21486     0.16125     0.07947     0.02817     0.01670
 PZ  C   1   0.00491     0.02960     0.02607     0.02143     0.00911     0.00377
  
  S  C   2   0.17015     0.00700    -0.08925    -0.24756    -0.12016    -0.05728
 PX  C   2   0.02647    -0.11119    -0.11801    -0.12046    -0.04348    -0.02460
 PY  C   2  -0.03288     0.00891     0.04386     0.16420     0.16909     0.12565
 PZ  C   2  -0.01894    -0.02194    -0.00933     0.01297     0.00906     0.00469
  
  S  C   3  -0.03909     0.05296     0.03744    -0.06597    -0.14360    -0.10930
 PX  C   3   0.14293     0.03747    -0.03820    -0.07972     0.08040     0.11603
 PY  C   3   0.04988     0.01238    -0.02545    -0.14807    -0.15740    -0.13770
 PZ  C   3   0.00417     0.01925     0.00842    -0.02271    -0.02818    -0.01655
  
  S  C   4   0.00802    -0.03499    -0.01723     0.10131     0.16206     0.14253
 PX  C   4  -0.09850    -0.03648     0.02860     0.12705     0.05625     0.02054
 PY  C   4  -0.07301     0.06487     0.07145     0.00275    -0.15107    -0.14659
 PZ  C   4  -0.01732    -0.01014    -0.00146     0.01063    -0.00208    -0.00642
  
  S  C   5  -0.13042    -0.07764     0.01116     0.14930     0.07834     0.03251
 PX  C   5   0.00125     0.00930    -0.01149    -0.09562    -0.13237    -0.11476
 PY  C   5  -0.15180    -0.19863    -0.08687     0.11916     0.12854     0.09444
 PZ  C   5   0.01242     0.01150     0.00323    -0.01134    -0.00892    -0.00579
  
  S  C   6  -0.16503    -0.24467    -0.13968     0.02444     0.02533     0.00769
 PX  C   6   0.13882     0.25829     0.15995    -0.00909    -0.03261    -0.01064
 PY  C   6   0.04789    -0.05946    -0.09116    -0.14657    -0.07142    -0.03258
 PZ  C   6  -0.01026    -0.01853    -0.01251    -0.00431    -0.00201    -0.00109
  
  S  C   7  -0.20485    -0.06811     0.04101     0.09825    -0.09332    -0.14161
 PX  C   7  -0.07594    -0.01041     0.00105    -0.04487    -0.11261    -0.09420
 PY  C   7   0.05474     0.04606    -0.02390    -0.10459     0.08222     0.27768
 PZ  C   7   0.01271     0.00213    -0.00466    -0.00939     0.00417     0.00592
  
  S  C   8   0.17794    -0.05110    -0.10834    -0.10373     0.11508     0.13593
 PX  C   8  -0.02884    -0.03016    -0.00956     0.09675    -0.00854    -0.10162
 PY  C   8   0.04794    -0.05792    -0.06328    -0.01406     0.15803     0.21986
 PZ  C   8   0.00409    -0.00245    -0.00072     0.00329     0.01083     0.01565
  
  S  C   9   0.01380     0.05330     0.03816    -0.12163    -0.00566     0.13042
 PX  C   9   0.13568    -0.02248    -0.07341    -0.07208     0.09629     0.12525
 PY  C   9   0.11256    -0.04418    -0.00950     0.10993     0.04802    -0.18337
 PZ  C   9  -0.00663     0.00544     0.00568    -0.00985    -0.00367     0.00694
  
  S  C  10   0.04073    -0.03750     0.02410     0.14221     0.00284    -0.19236
 PX  C  10  -0.12636     0.00417     0.07041    -0.03985    -0.08928     0.05862
[...]
  S   H   18   -0.0395   -0.0158   -0.0493   -0.0353    0.0633    0.2929   -0.0258    0.0589
  S   H   19   -0.1710   -0.2488    0.3308    0.1217    0.0007    0.0690   -0.0138    0.1172
  S   H   20    0.1719   -0.1958    0.2758   -0.1697    0.1067   -0.0093    0.0459   -0.1420
  S   C   21    0.1012   -0.0344   -0.0026   -0.0167   -0.0085    0.0101    0.1019    0.0867
  Px  C   21    0.1759   -0.1205   -0.0986    0.3124    0.0795   -0.0068   -0.0868   -0.0599
  Py  C   21   -0.1464    0.0825    0.0394   -0.1106   -0.0208    0.0337    0.3454    0.2579
  Pz  C   21   -0.0247    0.0143    0.0083   -0.0292   -0.0078    0.0019    0.0201    0.0146
  S   C   22    0.0315   -0.0021    0.0246   -0.0581   -0.0130   -0.0122   -0.1232   -0.0551
  Px  C   22    0.0378   -0.0028    0.0434   -0.0943   -0.0133    0.0505    0.5030    0.1449
  Py  C   22    0.0924   -0.0305   -0.0097    0.0365    0.0124    0.0019    0.0138    0.1342
  Pz  C   22    0.0063   -0.0021   -0.0003    0.0025    0.0009   -0.0010   -0.0097   -0.0000
  S   C   23   -0.0658    0.0225    0.0224   -0.0559   -0.0125    0.0089    0.0881   -0.0741
  Px  C   23   -0.1319    0.0382   -0.0077    0.0313    0.0143   -0.0203   -0.1871    0.2093
  Py  C   23   -0.0398    0.0194    0.0375   -0.0883   -0.0156   -0.0412   -0.4068    0.1296
  Pz  C   23    0.0056   -0.0014    0.0020   -0.0063   -0.0018   -0.0006   -0.0065   -0.0063
  S   C   24   -0.1513    0.0443   -0.0262    0.0343    0.0016   -0.0067   -0.0656    0.0889
  Px  C   24    0.0684   -0.0272   -0.0088    0.0515    0.0210   -0.0178   -0.1695    0.2267
  Py  C   24   -0.1919    0.0868   -0.1340    0.3455    0.0720    0.0198    0.2148   -0.2327
  Pz  C   24   -0.0171    0.0073   -0.0090    0.0245    0.0052    0.0024    0.0246   -0.0282
  S   H   25   -0.2132    0.1172    0.0701   -0.1957   -0.0419    0.0179    0.1900    0.1352
  S   H   26   -0.0482    0.0081   -0.0381    0.0757    0.0096   -0.0302   -0.2997   -0.0803
  S   H   27    0.1208   -0.0427   -0.0261    0.0522    0.0053    0.0280    0.2708   -0.1236
  S   H   28    0.2349   -0.0886    0.1029   -0.2382   -0.0428   -0.0160   -0.1660    0.1867
  S   C   29    0.2086   -0.1338   -0.0537    0.2567    0.0862    0.0025    0.0324    0.0355
  Px  C   29   -0.0844    0.0325   -0.0098    0.1248    0.0528   -0.0111   -0.1364   -0.1282
  Py  C   29    0.1492   -0.1126    0.0259   -0.1592   -0.0635   -0.0068   -0.0521   -0.1132
  Pz  C   29    0.0038    0.0004    0.0064   -0.0029    0.0029    0.0005    0.0061    0.0054
  S   C   30   -0.1620    0.0867   -0.0818    0.2868    0.0841    0.0004   -0.0048    0.0388
  Px  C   30   -0.0865    0.0885   -0.0062   -0.0658   -0.0396    0.0074    0.0746   -0.1863
  Py  C   30    0.1867   -0.1038    0.0121    0.1346    0.0742    0.0052    0.0939   -0.0709
  Pz  C   30    0.0036   -0.0011   -0.0051   -0.0000   -0.0040    0.0002    0.0029   -0.0031


   Root No.      73        74        75        76        77        78        79        80

                73 A      74 A      75 A      76 A      77 A      78 A      79 A      80 A   

                 9.346     9.435    10.135    10.613    10.990    11.555    11.788    12.206
  
  S   C    1   -0.0078    0.0979   -0.0303   -0.0777    0.0430    0.0042    0.0038    0.0015
  Px  C    1    0.0372    0.2433    0.0816   -0.1971   -0.1599   -0.1543    0.0540   -0.1568
  Py  C    1   -0.1084    0.1536   -0.1998   -0.0677    0.2673    0.1359   -0.0337    0.1300
  Pz  C    1   -0.0025    0.0317   -0.0036   -0.0228    0.0010   -0.0067    0.0057   -0.0091
  S   C    2   -0.0468   -0.0846   -0.0719    0.0316    0.0997    0.0471    0.0214    0.0114
  Px  C    2    0.0255    0.2630    0.0284   -0.2357   -0.0602   -0.1165    0.0866   -0.1600
  Py  C    2   -0.1603   -0.1810   -0.1822   -0.0318    0.2130    0.0480    0.1174   -0.0663
  Pz  C    2    0.0122    0.0243    0.0148   -0.0118   -0.0187   -0.0107   -0.0011   -0.0067
  S   C    3    0.0108   -0.0553   -0.0041    0.0704    0.0256    0.0281   -0.0007    0.0120
  Px  C    3   -0.2225   -0.1229   -0.2225   -0.0600    0.0266   -0.0671   -0.2576    0.1018
  Py  C    3   -0.0549   -0.0063   -0.1063   -0.0885    0.2691    0.0665    0.3635   -0.2220
  Pz  C    3   -0.0110   -0.0171   -0.0148    0.0062    0.0098    0.0030   -0.0135    0.0070
  S   C    4   -0.0223   -0.0494   -0.0009    0.0646   -0.0417   -0.0176    0.0072   -0.0171
  Px  C    4    0.0994   -0.1728    0.2339   -0.0979   -0.2250   -0.0559   -0.1770    0.1775
  Py  C    4    0.0932   -0.1391    0.1138    0.0342    0.1297    0.0852    0.4130   -0.1906
  Pz  C    4    0.0095   -0.0171    0.0189   -0.0024   -0.0024    0.0002    0.0278   -0.0091
  S   C    5   -0.0102   -0.1127    0.0572    0.0431   -0.1097   -0.0509   -0.0189   -0.0170
  Px  C    5    0.0878   -0.0637    0.1653   -0.1559   -0.1218   -0.0183   -0.1812    0.2076
  Py  C    5    0.0605    0.2958   -0.0600   -0.1655    0.1756    0.0912   -0.0270    0.1226
  Pz  C    5    0.0069    0.0087    0.0058   -0.0130    0.0008    0.0030   -0.0096    0.0145
  S   C    6    0.0562    0.0620    0.0605   -0.0711   -0.0435   -0.0219   -0.0170    0.0167
  Px  C    6    0.1760    0.1478    0.1635   -0.1504   -0.1064   -0.0486   -0.0294    0.0245
  Py  C    6   -0.0151    0.1668   -0.1371   -0.1382    0.2930    0.1779   -0.0856    0.2359
  Pz  C    6    0.0080    0.0128    0.0032   -0.0120    0.0053    0.0043   -0.0051    0.0104
  S   C    7    0.1074    0.0166    0.0626    0.0783    0.0336    0.0662    0.0365   -0.0089
  Px  C    7   -0.1280   -0.1398   -0.1460    0.0338    0.0426    0.0087   -0.2526    0.1178
  Py  C    7    0.3183   -0.0115    0.0831    0.2402    0.1172    0.1792   -0.0479    0.0175
  Pz  C    7   -0.0249   -0.0164   -0.0229   -0.0044    0.0016   -0.0065   -0.0284    0.0117
  S   C    8   -0.0812    0.0687   -0.0799    0.0653   -0.0477   -0.0496   -0.0410   -0.0017
  Px  C    8   -0.1770    0.0178   -0.0456    0.2184   -0.1654   -0.1395    0.1577   -0.0608
  Py  C    8    0.1818   -0.2267    0.1970   -0.0764    0.0319    0.0664    0.1729   -0.0567
  Pz  C    8    0.0286   -0.0307    0.0279   -0.0138    0.0104    0.0134    0.0197   -0.0042
  S   C    9   -0.0055    0.0399   -0.0383   -0.0038   -0.0059   -0.0209   -0.0196   -0.0113
  Px  C    9   -0.2571    0.0755   -0.1048    0.2453   -0.2256   -0.1790    0.1128   -0.0616
  Py  C    9   -0.1221    0.0796    0.1217    0.1042   -0.0957    0.4350   -0.1445   -0.0489
  Pz  C    9    0.0013    0.0012   -0.0036   -0.0046    0.0020   -0.0055   -0.0019    0.0021
  S   C   10    0.0001    0.0348    0.0399    0.0011   -0.0006    0.0313    0.0205   -0.0014
  Px  C   10    0.2782   -0.0211   -0.1065    0.2973    0.1438   -0.2316    0.0372    0.0737
  Py  C   10    0.1566   -0.0687    0.1232    0.1279    0.1069    0.4064   -0.1863    0.0335
  Pz  C   10    0.0064   -0.0010   -0.0025    0.0049    0.0033   -0.0077    0.0056    0.0006
  S   C   11   -0.0862    0.0417    0.0834   -0.0769   -0.0199    0.0644    0.0452    0.0243
  Px  C   11    0.1905    0.0220   -0.0434    0.2465    0.1021   -0.1762    0.0909    0.0959
  Py  C   11   -0.1784    0.1603    0.2091   -0.0819    0.0143    0.0638    0.1458    0.1324
  Pz  C   11    0.0099   -0.0060   -0.0102    0.0068    0.0008   -0.0061   -0.0062   -0.0042
  S   H   12   -0.1366    0.0727    0.1124   -0.0942   -0.0214    0.0848    0.0454    0.0427
  S   C   13    0.0959   -0.0025   -0.0661   -0.0813    0.0471   -0.0872   -0.0332   -0.0330
  Px  C   13    0.1197    0.1133   -0.1548   -0.0211   -0.0506    0.0231   -0.1632   -0.1950
  Py  C   13   -0.2659    0.0575    0.0906    0.2158   -0.1422    0.2221   -0.0189   -0.0062
  Pz  C   13    0.0112    0.0020   -0.0078   -0.0058    0.0021   -0.0054   -0.0048   -0.0057
  S   H   14    0.2013    0.0307    0.0826    0.1006    0.0539    0.0955    0.0473   -0.0254
  S   H   15   -0.0516    0.1471   -0.0827   -0.0902    0.0921    0.0244    0.0032    0.0169
  S   H   16   -0.0907   -0.1644   -0.1027    0.0454    0.1325    0.0600    0.0452    0.0052
  S   H   17   -0.0021   -0.1534    0.0741    0.0326   -0.1177   -0.0498   -0.0387   -0.0024
  S   H   18    0.1043    0.0790    0.0990   -0.0824   -0.0701   -0.0328   -0.0168    0.0077
  S   H   19   -0.1489    0.1197   -0.1143    0.0923   -0.0687   -0.0861   -0.0478    0.0162
  S   H   20    0.1684    0.0019   -0.0888   -0.1010    0.0556   -0.1106   -0.0354   -0.0522
  S   C   21   -0.0017   -0.0779   -0.0656   -0.0526   -0.0767    0.0619    0.0336    0.0030
  Px  C   21   -0.1035    0.0353    0.1927   -0.1292    0.1344   -0.0206   -0.0823   -0.2389
  Py  C   21   -0.0537   -0.2285   -0.0642   -0.1921   -0.1027    0.1211    0.0436   -0.1096
  Pz  C   21    0.0047   -0.0119   -0.0158   -0.0004   -0.0135    0.0068    0.0072    0.0108
  S   C   22    0.0511    0.0463   -0.0644    0.0515   -0.0520    0.0336    0.0070    0.0086
  Px  C   22   -0.1668   -0.1074    0.1868   -0.0999    0.1334   -0.0854   -0.0184   -0.0048
  Py  C   22    0.0070   -0.1428   -0.1470   -0.1988   -0.2061    0.2418    0.0449   -0.2267
  Pz  C   22    0.0041   -0.0011   -0.0089   -0.0028   -0.0094    0.0093    0.0015   -0.0067
  S   C   23   -0.0163    0.0798    0.0514    0.0884    0.0323   -0.0174   -0.0178   -0.0038
  Px  C   23   -0.0210   -0.2050    0.0638   -0.1632    0.1614   -0.2069   -0.0015    0.1834
  Py  C   23    0.1050   -0.1459   -0.2225   -0.1407   -0.1979    0.1776    0.0446   -0.1121
  Pz  C   23    0.0049    0.0055   -0.0106    0.0038   -0.0144    0.0161    0.0010   -0.0138
  S   C   24   -0.0320   -0.0713    0.0634   -0.0151    0.0769   -0.0614   -0.0308    0.0013
  Px  C   24   -0.0139   -0.2265    0.0038   -0.2194    0.0880   -0.1477    0.0365    0.1917
  Py  C   24    0.1362    0.1323   -0.1949   -0.0970   -0.1492    0.0576    0.1184    0.1349
  Pz  C   24    0.0102    0.0214   -0.0149    0.0049   -0.0165    0.0131    0.0065   -0.0004
  S   H   25    0.0068   -0.1141   -0.0866   -0.0498   -0.0885    0.0645    0.0468    0.0203
  S   H   26    0.1004    0.0587   -0.1133    0.0540   -0.0814    0.0531    0.0136    0.0010
  S   H   27   -0.0518    0.1325    0.0980    0.1165    0.0566   -0.0328   -0.0240    0.0038
  S   H   28   -0.0768   -0.1324    0.1044   -0.0103    0.1059   -0.0764   -0.0535   -0.0168
  S   C   29   -0.0283   -0.0422    0.0039   -0.0659   -0.0252    0.0281    0.0218    0.0032
  Px  C   29   -0.1121    0.1012    0.2590   -0.0621    0.2066   -0.0714   -0.1183   -0.2420
  Py  C   29   -0.0807    0.1231    0.1292    0.0189   -0.0622    0.0819    0.3115    0.3437
  Pz  C   29    0.0060   -0.0051   -0.0135    0.0035   -0.0098    0.0034    0.0029    0.0087
  S   C   30    0.0009   -0.0513    0.0072   -0.0546    0.0354   -0.0342   -0.0109    0.0022
  Px  C   30    0.1900    0.0919   -0.2315   -0.0990   -0.0192   -0.0683   -0.1828   -0.2050
  Py  C   30    0.0602    0.0088   -0.1362   -0.1326   -0.1790    0.0762    0.2856    0.3697
  Pz  C   30    0.0040    0.0011   -0.0071   -0.0051   -0.0047    0.0004    0.0042    0.0058


   Root No.      81        82        83        84

                81 A      82 A      83 A      84 A   

                12.645    12.680    13.140    14.465
  
  S   C    1   -0.0577   -0.0408    0.0232    0.0460
  Px  C    1   -0.2746    0.0424    0.2209    0.1062
  Py  C    1    0.0668   -0.1417   -0.1153    0.0330
  Pz  C    1   -0.0222   -0.0030    0.0138    0.0106
  S   C    2   -0.0028   -0.0260   -0.0105    0.0307
  Px  C    2   -0.3281    0.0005    0.2358    0.1620
  Py  C    2   -0.1672   -0.0597    0.0761    0.1340
  Pz  C    2   -0.0110    0.0036    0.0099    0.0028
  S   C    3    0.0209    0.0053    0.0008    0.0201
  Px  C    3   -0.2058   -0.0734    0.2914    0.2211
  Py  C    3   -0.2343   -0.0280    0.0353    0.1315
  Pz  C    3   -0.0116   -0.0039    0.0185    0.0175
  S   C    4    0.0056    0.0110   -0.0123    0.0272
  Px  C    4   -0.0311   -0.2853   -0.1241    0.2239
  Py  C    4   -0.1215   -0.1175   -0.1865    0.1679
  Pz  C    4   -0.0115   -0.0236   -0.0218    0.0243
  S   C    5   -0.0175    0.0160    0.0233    0.0218
  Px  C    5   -0.0191   -0.3071   -0.1290    0.1940
  Py  C    5    0.0266   -0.1830   -0.1222    0.0641
  Pz  C    5    0.0010   -0.0211   -0.0115    0.0111
  S   C    6   -0.0363   -0.0560   -0.0055    0.0453
  Px  C    6   -0.0772   -0.1010   -0.0023    0.0846
  Py  C    6    0.1049   -0.2817   -0.2189    0.0812
  Pz  C    6    0.0008   -0.0154   -0.0086    0.0068
  S   C    7    0.0449    0.0403   -0.0167    0.0033
  Px  C    7   -0.1623   -0.0428    0.2853    0.2410
  Py  C    7   -0.0243    0.0798    0.1242    0.1422
  Pz  C    7   -0.0191   -0.0073    0.0284    0.0212
  S   C    8    0.0475    0.0525    0.0094   -0.0034
  Px  C    8    0.0149   -0.1611   -0.2182    0.2840
  Py  C    8   -0.1111   -0.1592   -0.1360    0.1573
  Pz  C    8   -0.0147   -0.0190   -0.0113    0.0143
  S   C    9    0.0325    0.0554   -0.0053   -0.0025
  Px  C    9    0.0595   -0.0893   -0.2148    0.2765
  Py  C    9   -0.1222    0.2156   -0.1008    0.1799
  Pz  C    9    0.0020    0.0001    0.0044   -0.0047
  S   C   10    0.0486    0.0315   -0.0095   -0.0022
  Px  C   10    0.1446   -0.0796    0.2240    0.2281
  Py  C   10   -0.1510    0.1498    0.1455    0.1547
  Pz  C   10    0.0023   -0.0043    0.0035    0.0046
  S   C   11    0.0453    0.0396    0.0100   -0.0060
  Px  C   11    0.2057   -0.0437    0.2189    0.2164
  Py  C   11    0.1946    0.0812    0.1517    0.1111
  Pz  C   11   -0.0059   -0.0032   -0.0042   -0.0018
  S   H   12    0.0288    0.0467    0.0173   -0.0009
  S   C   13    0.0414    0.0328   -0.0097   -0.0156
  Px  C   13    0.0528    0.2282   -0.2304    0.2611
  Py  C   13   -0.0723    0.0788   -0.0967    0.1689
  Pz  C   13    0.0029    0.0051   -0.0047    0.0029
  S   H   14    0.0167    0.0464   -0.0128    0.0071
  S   H   15   -0.0441   -0.0556    0.0046    0.0422
  S   H   16    0.0047   -0.0278   -0.0281    0.0190
  S   H   17   -0.0154    0.0092    0.0259    0.0140
  S   H   18   -0.0449   -0.0456    0.0069    0.0403
  S   H   19    0.0562    0.0221    0.0086   -0.0008
  S   H   20    0.0450    0.0111   -0.0157   -0.0104
  S   C   21    0.0049   -0.0260    0.0152   -0.0249
  Px  C   21    0.3339    0.0124    0.1076    0.1602
  Py  C   21    0.2055   -0.0540    0.1100    0.0479
  Pz  C   21   -0.0126   -0.0023   -0.0027   -0.0079
  S   C   22   -0.0517   -0.0399   -0.0048   -0.0358
  Px  C   22    0.0864    0.0907   -0.0021    0.0676
  Py  C   22    0.3067   -0.1497    0.1815    0.0532
  Pz  C   22    0.0061   -0.0072    0.0051   -0.0007
  S   C   23   -0.0491   -0.0521    0.0051   -0.0404
  Px  C   23   -0.0502    0.3154   -0.1552    0.1061
  Py  C   23    0.1518   -0.0812    0.0892    0.0235
  Pz  C   23    0.0077   -0.0191    0.0109   -0.0047
  S   C   24   -0.0274    0.0104   -0.0174   -0.0230
  Px  C   24    0.0021    0.3494   -0.1472    0.1516
  Py  C   24    0.0713    0.1785   -0.0290    0.1253
  Pz  C   24    0.0041   -0.0052    0.0048    0.0013
  S   H   25    0.0037   -0.0257    0.0222   -0.0178
  S   H   26   -0.0409   -0.0523    0.0060   -0.0336
  S   H   27   -0.0603   -0.0422   -0.0043   -0.0361
  S   H   28   -0.0328    0.0131   -0.0296   -0.0143
  S   C   29    0.0103    0.0043   -0.0029   -0.0205
  Px  C   29    0.3185    0.0223    0.1017    0.1839
  Py  C   29    0.1620    0.0706    0.2252    0.1120
  Pz  C   29   -0.0180   -0.0023   -0.0073   -0.0099
  S   C   30    0.0033    0.0099    0.0035   -0.0251
  Px  C   30    0.0817    0.2495   -0.2330    0.2345
  Py  C   30    0.0385    0.2099    0.0359    0.1024
  Pz  C   30    0.0027    0.0104   -0.0037    0.0072


              NET ATOMIC CHARGES AND DIPOLE CONTRIBUTIONS

  ATOM NO.   TYPE          CHARGE      No. of ELECS.   s-Pop       p-Pop       
    1          C          -0.028197        4.0282     1.09624     2.93196
    2          C          -0.022809        4.0228     1.08652     2.93629
    3          C           0.012354        3.9876     1.06850     2.91914
    4          C           0.015576        3.9844     1.06302     2.92140
    5          C          -0.024286        4.0243     1.10449     2.91980
    6          C          -0.021576        4.0216     1.09764     2.92394
    7          C          -0.038456        4.0385     1.10829     2.93017
    8          C          -0.034494        4.0345     1.09643     2.93806
    9          C           0.009711        3.9903     1.07071     2.91958
   10          C           0.001376        3.9986     1.08674     2.91189
   11          C          -0.038043        4.0380     1.11594     2.92210
   12          H           0.027896        0.9721     0.97210
   13          C          -0.030086        4.0301     1.09145     2.93863
   14          H           0.023421        0.9766     0.97658
   15          H           0.027467        0.9725     0.97253
   16          H           0.020391        0.9796     0.97961
   17          H           0.017389        0.9826     0.98261
   18          H           0.020821        0.9792     0.97918
   19          H           0.019963        0.9800     0.98004
   20          H           0.027682        0.9723     0.97232
   21          C          -0.034362        4.0344     1.11533     2.91903
   22          C          -0.026908        4.0269     1.10207     2.92484
   23          C          -0.023302        4.0233     1.09126     2.93204
   24          C          -0.031288        4.0313     1.09651     2.93478
   25          H           0.019414        0.9806     0.98059
   26          H           0.023013        0.9770     0.97699
   27          H           0.027729        0.9723     0.97227
   28          H           0.021644        0.9784     0.97836
   29          C           0.019695        3.9803     1.06104     2.91927
   30          C           0.018267        3.9817     1.05836     2.92338
 DIPOLE           X         Y         Z       TOTAL
 POINT-CHG.    -0.043     0.079    -0.011     0.090
 HYBRID         0.001    -0.031    -0.066     0.073
 SUM           -0.042     0.048    -0.077     0.100


          ATOMIC ORBITAL ELECTRON POPULATIONS

     Atom    s        px        py        pz   
    1  C   1.09624   0.99165   0.94183   0.99848
    2  C   1.08652   0.97899   0.95641   1.00089
    3  C   1.06850   0.97127   0.97134   0.97653
    4  C   1.06302   0.96439   0.97596   0.98105
    5  C   1.10449   0.96663   0.94918   1.00399
    6  C   1.09764   0.93873   0.98447   1.00074
    7  C   1.10829   0.97054   0.94491   1.01472
    8  C   1.09643   0.96289   0.96134   1.01384
    9  C   1.07071   0.96979   0.96856   0.98123
   10  C   1.08674   0.96367   0.96470   0.98351
   11  C   1.11594   0.96278   0.94424   1.01508
   12  H   0.97210
   13  C   1.09145   0.97110   0.95041   1.01713
   14  H   0.97658
   15  H   0.97253
   16  H   0.97961
   17  H   0.98261
   18  H   0.97918
   19  H   0.98004
   20  H   0.97232
   21  C   1.11533   0.96203   0.94987   1.00713
   22  C   1.10207   0.93954   0.98504   1.00026
   23  C   1.09126   0.98769   0.94420   1.00015
   24  C   1.09651   0.97727   0.95311   1.00441
   25  H   0.98059
   26  H   0.97699
   27  H   0.97227
   28  H   0.97836
   29  C   1.06104   0.96489   0.96896   0.98541
   30  C   1.05836   0.97279   0.96855   0.98204

 **********************
 *                    *
 * JOB ENDED NORMALLY *
 *                    *
 **********************



 TOTAL JOB TIME:             2.17 SECONDS

 == MOPAC DONE ==


          MOPAC Job: "./tetraceneTraj/tetracene_1711.mop" ended normally on Feb 15, 2023, at 11:36.

rm: cannot remove ./tetraceneTraj/tetracene_1711.cim: No such file or directory
rm: cannot remove ./tetraceneTraj/tetracene_1711.end: No such file or directory
rm: cannot remove ./tetraceneTraj/tetracene_1711.log: No such file or directory
rm: cannot remove ./tetraceneTraj/tetracene_1711.temp: No such file or directory
rm: cannot remove ./tetraceneTraj/tetracene_1711.ple: No such file or directory
rm: cannot remove ./tetraceneTraj/tetracene_1711.sts: No such file or directory
