 *******************************************************************************
 ** Site#:    0         For non-commercial use only    Version 20.173L 64BITS **
 *******************************************************************************
 ** Cite this program as: MOPAC2016, Version: 20.173L, James J. P. Stewart,   **
 ** Stewart Computational Chemistry, web-site: HTTP://OpenMOPAC.net.          **
 *******************************************************************************
 **                                                                           **
 **                                MOPAC2016                                  **
 **                                                                           **
 *******************************************************************************

                              INDO CALCULATION RESULTS

 *******************************************************************************
 *  CALCULATION DONE:                                Wed Feb 15 11:34:11 2023  *
 *  INDO       - The INDO Hamiltonian to be used
 *
 *
 *
 *                 CHARGE ON SYSTEM = 0
 *
 *
 *
 *  C.I.=(N,M) - 3 DOUBLY FILLED LEVELS USED IN A C.I. INVOLVING 6 M.O.'S
 *  T=         - A TIME OF 172800.0 SECONDS REQUESTED
 *  DUMP=N     - RESTART FILE WRITTEN EVERY 7200.0 SECONDS REQUESTED
 *  RELSCF     - DEFAULT SCF CRITERION MULTIPLIED BY 0.0000
 *              (DEFAULT SCF CRITERION = 0.00010)
 *  ALLVEC     - PRINT ALL EIGENVECTORS
 **********
 *  WARNING: Specified print options may not behave as expected with INDO
 **********
 *******************************************************************************
INDO C.I.=(6,3) AllVEC CHARGE=0 RELSCF=0.000001


   ATOM   CHEMICAL          X               Y               Z
  NUMBER   SYMBOL      (ANGSTROMS)     (ANGSTROMS)     (ANGSTROMS)
 
     1       C         18.49776278  *  19.53077345  *  22.32405145  *
     2       C         19.89240236  *  19.44418880  *  22.32609426  *
     3       C         20.67904392  *  20.65885883  *  22.37054378  *
     4       C         19.97916184  *  21.94638924  *  22.48336728  *
     5       C         18.54303437  *  21.92974241  *  22.36176335  *
     6       C         17.80005218  *  20.78488299  *  22.31347788  *
     7       C         22.08525528  *  20.57834237  *  22.52923148  *
     8       C         20.74895739  *  23.15605834  *  22.61787385  *
     9       C         22.16262775  *  23.16531510  *  22.59811180  *
    10       C         22.87353006  *  21.80527186  *  22.64723214  *
    11       C         24.29000022  *  21.82796419  *  22.59730549  *
    12       H         24.85121786  *  20.87600722  *  22.52522941  *
    13       C         22.89368414  *  24.38413006  *  22.52590514  *
    14       H         22.68943813  *  19.62833991  *  22.54572669  *
    15       H         17.95121458  *  18.58139688  *  22.32575594  *
    16       H         20.36258516  *  18.48300459  *  22.35449145  *
    17       H         18.00507070  *  22.91176679  *  22.32652716  *
    18       H         16.70599017  *  20.77160179  *  22.29176663  *
    19       H         20.25526143  *  24.16535466  *  22.58609765  *
    20       H         22.38476315  *  25.36306228  *  22.54551993  *
    21       C         26.51482303  *  23.04898916  *  22.50480864  *
    22       C         27.19605813  *  24.29139655  *  22.46284988  *
    23       C         26.42981017  *  25.55083003  *  22.60703240  *
    24       C         25.03306985  *  25.54012565  *  22.66930262  *
    25       H         27.07065863  *  22.11513973  *  22.46027114  *
    26       H         28.33125758  *  24.27390359  *  22.43849928  *
    27       H         26.97888530  *  26.46975478  *  22.58045125  *
    28       H         24.48590228  *  26.46924799  *  22.74694591  *
    29       C         25.06710555  *  23.01797149  *  22.55174421  *
    30       C         24.30755295  *  24.32964954  *  22.53220738  *
 


          CARTESIAN COORDINATES 

    NO.       ATOM           X           Y           Z

     1         C         18.4978     19.5308     22.3241
     2         C         19.8924     19.4442     22.3261
     3         C         20.6790     20.6589     22.3705
     4         C         19.9792     21.9464     22.4834
     5         C         18.5430     21.9297     22.3618
     6         C         17.8001     20.7849     22.3135
     7         C         22.0853     20.5783     22.5292
     8         C         20.7490     23.1561     22.6179
     9         C         22.1626     23.1653     22.5981
    10         C         22.8735     21.8053     22.6472
    11         C         24.2900     21.8280     22.5973
    12         H         24.8512     20.8760     22.5252
    13         C         22.8937     24.3841     22.5259
    14         H         22.6894     19.6283     22.5457
    15         H         17.9512     18.5814     22.3258
    16         H         20.3626     18.4830     22.3545
    17         H         18.0051     22.9118     22.3265
    18         H         16.7060     20.7716     22.2918
    19         H         20.2553     24.1654     22.5861
    20         H         22.3848     25.3631     22.5455
    21         C         26.5148     23.0490     22.5048
    22         C         27.1961     24.2914     22.4628
    23         C         26.4298     25.5508     22.6070
    24         C         25.0331     25.5401     22.6693
    25         H         27.0707     22.1151     22.4603
    26         H         28.3313     24.2739     22.4385
    27         H         26.9789     26.4698     22.5805
    28         H         24.4859     26.4692     22.7469
    29         C         25.0671     23.0180     22.5517
    30         C         24.3076     24.3296     22.5322

           Empirical Formula: C18 H12  =    30 atoms



      MOLECULAR POINT GROUP   :   C2  


      RHF CALCULATION, NO. OF DOUBLY OCCUPIED LEVELS = 42

 WARNING: INDO only performs single-point calculations
  SCF CRITERION =    0.1000E-09

 Summary of symmetry occupancy in each shell:

 SHELL     
    1   42
    v   42
 TOTAL  84




    ROOT NO.    1           2           3           4           5           6

           -44.17058   -42.84967   -40.07770   -36.54726   -35.74014   -34.21644
  
  
  S  C   1   0.17561    -0.23065    -0.24105    -0.23358     0.06120     0.12003
 PX  C   1   0.04407    -0.05111    -0.03432     0.00470     0.04017     0.09785
 PY  C   1   0.06150    -0.07781    -0.07300    -0.05922    -0.02008    -0.06032
 PZ  C   1   0.00164    -0.00169    -0.00067     0.00089     0.00039     0.00068
  
  S  C   2   0.20346    -0.23630    -0.17680    -0.06952     0.15375     0.31693
 PX  C   2  -0.01427     0.03597     0.07366     0.11269     0.02918     0.04482
 PY  C   2   0.07863    -0.08431    -0.04554     0.00945     0.01199     0.01523
 PZ  C   2   0.00501    -0.00462    -0.00060     0.00416     0.00350     0.00633
  
  S  C   3   0.30987    -0.25829    -0.00462     0.21317     0.13553     0.23303
 PX  C   3  -0.02115     0.07322     0.13429     0.12608     0.05844     0.05757
 PY  C   3   0.04729    -0.00930     0.06907     0.08619    -0.08506    -0.15043
 PZ  C   3   0.01343    -0.00727     0.01029     0.02065     0.00433     0.00561
  
  S  C   4   0.30773    -0.25391    -0.00196     0.18402    -0.15597    -0.21858
 PX  C   4   0.03036     0.03137     0.13414     0.15300     0.02066     0.08299
 PY  C   4  -0.04590     0.07043     0.07712     0.03970    -0.09718    -0.12531
 PZ  C   4  -0.00550     0.00912     0.01152     0.00863    -0.00159     0.00073
  
  S  C   5   0.20585    -0.23979    -0.18471    -0.11276    -0.14244    -0.30359
 PX  C   5   0.05569    -0.04741     0.00603     0.06866    -0.03065    -0.02494
 PY  C   5  -0.05740     0.07983     0.09054     0.08960    -0.02427    -0.02060
 PZ  C   5   0.00308    -0.00247     0.00106     0.00522    -0.00400    -0.00556
  
  S  C   6   0.17373    -0.22901    -0.24250    -0.25084    -0.04501    -0.14578
 PX  C   6   0.07664    -0.09484    -0.08266    -0.05182    -0.00519    -0.01231
 PY  C   6   0.00251     0.00018     0.00934     0.02218    -0.04292    -0.09916
 PZ  C   6   0.00344    -0.00419    -0.00345    -0.00192    -0.00148    -0.00359
  
  S  C   7   0.22906    -0.08708     0.18167     0.24359     0.25630     0.22153
 PX  C   7  -0.04381     0.06672     0.02443    -0.08737     0.02794    -0.07616
 PY  C   7   0.06966    -0.00163     0.09054     0.05943     0.00673    -0.04116
 PZ  C   7  -0.00245     0.00367     0.00244    -0.00415    -0.00164    -0.00913
  
  S  C   8   0.23871    -0.07584     0.20515     0.20523    -0.28685    -0.22246
 PX  C   8   0.04147     0.03730     0.09543    -0.00276    -0.02428     0.05853
 PY  C   8  -0.06925     0.05476    -0.02762    -0.10530    -0.01795     0.03370
 PZ  C   8  -0.01011     0.00594    -0.00512    -0.00992     0.00996     0.01127
  
  S  C   9   0.30065     0.07590     0.32359    -0.03216    -0.21224    -0.04558
 PX  C   9   0.01358     0.08372    -0.00184    -0.18519     0.08202     0.07264
 PY  C   9  -0.03937     0.03716    -0.04537    -0.10979    -0.12694     0.02063
 PZ  C   9  -0.00315    -0.00017    -0.00229     0.00071     0.00274     0.00027
  
  S  C  10   0.28915     0.06585     0.31033    -0.00071     0.22963     0.01815
 PX  C  10  -0.02772     0.07298    -0.03628    -0.18261     0.09443    -0.04383
 PY  C  10   0.04089     0.05287     0.03589    -0.10794    -0.10248    -0.05192
 PZ  C  10  -0.01248    -0.00100    -0.01291    -0.00437    -0.01072    -0.00302
  
  S  C  11   0.20923     0.17124     0.14435    -0.21753     0.35223    -0.13835
 PX  C  11  -0.04274     0.00876    -0.09574     0.01096    -0.00166    -0.07187
 PY  C  11   0.05848     0.07416     0.00587    -0.09617     0.00332    -0.03847
 PZ  C  11  -0.00257    -0.00210    -0.00047     0.00100    -0.00501     0.00343
  
  S  H  12   0.06428     0.05189     0.04122    -0.05656     0.17069    -0.06885
  
  S  C  13   0.21971     0.18531     0.14172    -0.25051    -0.30580     0.14968
 PX  C  13   0.02884     0.07282    -0.05288    -0.07644     0.01393     0.08885
 PY  C  13  -0.06744    -0.03085    -0.08905     0.06369    -0.01098     0.04962
 PZ  C  13   0.00492     0.00451     0.00352    -0.00583    -0.00718     0.00328
  
  S  H  14   0.06778    -0.02218     0.05375     0.06434     0.13068     0.10216
  
  S  H  15   0.04648    -0.06395    -0.07503    -0.08732     0.02794     0.05965
  
  S  H  16   0.06149    -0.06974    -0.04893    -0.01222     0.07895     0.16169
  
  S  H  17   0.05897    -0.06641    -0.04752    -0.02919    -0.07320    -0.14897
  
  S  H  18   0.04512    -0.06247    -0.07480    -0.09433    -0.01871    -0.06361
  
  S  H  19   0.07330    -0.01893     0.06275     0.04704    -0.14352    -0.10342
  
  S  H  20   0.06942     0.05858     0.03977    -0.07201    -0.16033     0.07497
  
  S  C  21   0.13219     0.22631    -0.21786     0.13455     0.20915    -0.26829
 PX  C  21  -0.04364    -0.06140     0.01978     0.04713    -0.04875     0.02619
 PY  C  21   0.03081     0.06329    -0.09021     0.09311    -0.02981     0.00778
 PZ  C  21   0.00125     0.00193    -0.00097    -0.00103    -0.00009     0.00124
  
  S  C  22   0.10400     0.19912    -0.25531     0.25764     0.06552    -0.13463
 PX  C  22  -0.04768    -0.08659     0.09455    -0.06465    -0.00676     0.01217
 PY  C  22  -0.00467    -0.00603    -0.00187     0.01676    -0.06080     0.08201
 PZ  C  22   0.00435     0.00835    -0.01062     0.01022    -0.00009    -0.00122
  
  S  C  23   0.11069     0.21111    -0.26770     0.25834    -0.08518     0.08329
 PX  C  23  -0.03075    -0.05295     0.04776    -0.00916     0.05689    -0.07980
 PY  C  23  -0.03809    -0.06994     0.07923    -0.06155    -0.02404     0.04446
 PZ  C  23  -0.00198    -0.00394     0.00541    -0.00590    -0.00175     0.00364
  
  S  C  24   0.15009     0.25382    -0.23385     0.10811    -0.21883     0.25592
 PX  C  24   0.00051     0.01954    -0.07186     0.12043     0.04566    -0.04916
 PY  C  24  -0.05605    -0.08781     0.05987     0.00422     0.01534    -0.01312
 PZ  C  24  -0.00627    -0.01097     0.01070    -0.00507     0.00620    -0.00661
  
  S  H  25   0.03987     0.06657    -0.06051     0.03591     0.10461    -0.12837
  
  S  H  26   0.02490     0.04991    -0.07181     0.08752     0.02736    -0.05736
  
  S  H  27   0.02966     0.05915    -0.08392     0.09707    -0.03730     0.03962
  
  S  H  28   0.04892     0.08013    -0.06757     0.02135    -0.11553     0.13410
  
  S  C  29   0.23383     0.30687    -0.08609    -0.14495     0.23585    -0.18798
 PX  C  29  -0.04141    -0.00855    -0.11834     0.16044     0.02802    -0.07992
 PY  C  29   0.02477     0.05846    -0.08615     0.06062    -0.12277     0.08761
 PZ  C  29   0.00040    -0.00011     0.00243    -0.00370    -0.00139     0.00307
  
  S  C  30   0.24916     0.32719    -0.09093    -0.17541    -0.17459     0.19018
 PX  C  30  -0.00463     0.04164    -0.13818     0.14690     0.07815    -0.05222
 PY  C  30  -0.03770    -0.02119    -0.06601     0.09088    -0.12850     0.12688
 PZ  C  30   0.00576     0.00843    -0.00419    -0.00228    -0.00737     0.00887




    ROOT NO.    7           8           9          10          11          12

           -31.89619   -31.18417   -28.79462   -28.10518   -26.79448   -26.08267
  
  
  S  C   1   0.17668     0.26956    -0.15828    -0.25170    -0.03983    -0.19540
 PX  C   1   0.10651    -0.09264    -0.12399     0.14723     0.05059    -0.06700
 PY  C   1  -0.08025     0.01678     0.10664     0.02947    -0.07063     0.11026
 PZ  C   1  -0.00021    -0.00324     0.00027     0.00357     0.00002     0.00054
  
  S  C   2   0.28664    -0.04083    -0.17933     0.10343     0.12734    -0.01477
 PX  C   2  -0.03626    -0.13315     0.12736     0.10867     0.06155     0.21002
 PY  C   2  -0.02222    -0.08465     0.05818     0.10025    -0.08470     0.08906
 PZ  C   2   0.00191    -0.00612     0.00323     0.00382     0.00034     0.00602
  
  S  C   3   0.05997    -0.23798     0.10045     0.11574    -0.09336     0.17884
 PX  C   3  -0.06007     0.05725     0.15843    -0.14399     0.05032     0.09245
 PY  C   3  -0.09785    -0.01328    -0.01886    -0.08961    -0.17835    -0.13310
 PZ  C   3  -0.00522    -0.00606     0.01188    -0.01169    -0.01169     0.00356
  
  S  C   4  -0.08796    -0.26562    -0.14410     0.07705    -0.07257    -0.19781
 PX  C   4   0.09533     0.03002    -0.02242    -0.17353    -0.12813     0.04427
 PY  C   4   0.00095     0.04025    -0.10214    -0.11168     0.15235    -0.09084
 PZ  C   4   0.00622     0.00887    -0.00598    -0.02172     0.00406    -0.00198
  
  S  C   5  -0.27001    -0.06877     0.12953     0.16192     0.13133     0.03421
 PX  C   5   0.02824    -0.15569    -0.15903     0.10002    -0.02494    -0.20049
 PY  C   5   0.01227    -0.07570    -0.07870     0.01584     0.10556    -0.08875
 PZ  C   5  -0.00104    -0.01089    -0.01073     0.00522     0.00309    -0.01557
  
  S  C   6  -0.15864     0.26528     0.23392    -0.18860    -0.04242     0.19635
 PX  C   6  -0.00169    -0.03359    -0.04029     0.09201    -0.02551    -0.06620
 PY  C   6  -0.12404    -0.09278     0.10750     0.15406     0.08106     0.11567
 PZ  C   6  -0.00372    -0.00228     0.00135     0.00448     0.00051    -0.00089
  
  S  C   7  -0.16715     0.04070     0.27321    -0.09981     0.15552     0.04225
 PX  C   7  -0.11189     0.14382    -0.04618    -0.02050     0.11767    -0.20246
 PY  C   7  -0.06690     0.07813    -0.00714    -0.08287    -0.13992    -0.11543
 PZ  C   7  -0.00862     0.01355    -0.00591    -0.00706     0.00116    -0.02318
  
  S  C   8   0.16394     0.02375    -0.21350    -0.17790     0.15778     0.00664
 PX  C   8   0.11930     0.15850     0.06283    -0.05211    -0.07165     0.17892
 PY  C   8   0.07709     0.07696     0.03097     0.04797     0.17312     0.12267
 PZ  C   8   0.00031     0.00872     0.00861     0.00136    -0.00269     0.00890
  
  S  C   9   0.22126     0.23918    -0.00034     0.02878    -0.09040     0.15851
 PX  C   9  -0.07277    -0.00957     0.08034     0.20267    -0.11730    -0.06923
 PY  C   9   0.13517    -0.02884     0.05323     0.10383     0.20785     0.11389
 PZ  C   9  -0.00221     0.00284    -0.00315    -0.00463    -0.00312    -0.00079
  
  S  C  10  -0.22368     0.25112     0.00646     0.01326    -0.07111    -0.19870
 PX  C  10  -0.06554    -0.01792    -0.13210     0.15521     0.12531    -0.05640
 PY  C  10   0.12371     0.00679    -0.08569     0.09803    -0.21520     0.08839
 PZ  C  10   0.00978    -0.00609    -0.00615     0.00217     0.00185     0.00431
  
  S  C  11  -0.16251     0.00470    -0.24739     0.08026     0.18831     0.00363
 PX  C  11   0.11506    -0.15404    -0.04153    -0.10124     0.07530     0.19834
 PY  C  11   0.06468    -0.08303    -0.04386     0.03456    -0.18641     0.11323
 PZ  C  11  -0.00177     0.00474     0.00082     0.00388    -0.00444    -0.00699
  
  S  H  12  -0.07517    -0.00169    -0.10533    -0.00900     0.22351     0.00326
  
  S  C  13   0.16151    -0.00887     0.22119     0.15903     0.16357    -0.02082
 PX  C  13  -0.12416    -0.14525     0.05339    -0.01559    -0.11427    -0.18662
 PY  C  13  -0.07291    -0.08027     0.03810    -0.10351     0.15617    -0.10789
 PZ  C  13   0.00376     0.00253     0.00188     0.00231     0.00285     0.00274
  
  S  H  14  -0.08198     0.02522     0.11672    -0.01516     0.19565     0.01377
  
  S  H  15   0.09524     0.14962    -0.09658    -0.18326     0.00140    -0.13730
  
  S  H  16   0.14343    -0.01060    -0.08584     0.02844     0.13267     0.00045
  
  S  H  17  -0.12841    -0.02828     0.06422     0.05839     0.13312     0.02890
  
  S  H  18  -0.07621     0.14918     0.13928    -0.14869    -0.00724     0.13938
  
  S  H  19   0.08736     0.01010    -0.09759    -0.04640     0.20114     0.02309
  
  S  H  20   0.07254    -0.00668     0.10947     0.02695     0.20834    -0.01604
  
  S  C  21   0.28024    -0.05862     0.20722    -0.11585     0.12540    -0.05923
 PX  C  21   0.02355     0.12439     0.11569     0.14620     0.04529    -0.19979
 PY  C  21   0.02043     0.07693     0.06968     0.06364    -0.11464    -0.09840
 PZ  C  21  -0.00373    -0.00247    -0.00772    -0.00320    -0.00324     0.00937
  
  S  C  22   0.17018     0.24049     0.17649     0.27748    -0.02049    -0.20839
 PX  C  22  -0.00013     0.00930     0.02170     0.07810     0.05190    -0.06743
 PY  C  22  -0.11912     0.08817    -0.16066     0.11991    -0.06070     0.12497
 PZ  C  22   0.00013     0.00927    -0.00282     0.00774    -0.00482     0.00346
  
  S  C  23  -0.14967     0.28131    -0.23588     0.22718    -0.01366     0.19001
 PX  C  23   0.10285     0.06815     0.07928     0.18218    -0.03143    -0.06331
 PY  C  23  -0.06522    -0.01094    -0.09432    -0.00222     0.07923     0.09619
 PZ  C  23  -0.00513    -0.00708    -0.00570    -0.01214     0.00597     0.00675
  
  S  C  24  -0.26851    -0.01838    -0.14350    -0.16927     0.12078     0.01740
 PX  C  24  -0.01953     0.14652    -0.15355     0.09072    -0.07017     0.19034
 PY  C  24  -0.01591     0.08214    -0.08223     0.07773     0.10902     0.08494
 PZ  C  24   0.00513     0.00292    -0.00223     0.00602     0.00446     0.00525
  
  S  H  25   0.13318    -0.03028     0.10080    -0.04735     0.14268    -0.04124
  
  S  H  26   0.08165     0.11898     0.09942     0.17867     0.02089    -0.14520
  
  S  H  27  -0.07654     0.15472    -0.14315     0.16887     0.02364     0.12901
  
  S  H  28  -0.13213    -0.01127    -0.06378    -0.07239     0.14737    -0.00612
  
  S  C  29   0.08161    -0.24304    -0.10432    -0.13872    -0.09795     0.20505
 PX  C  29   0.10901    -0.00652     0.09224    -0.15192     0.12244     0.02885
 PY  C  29   0.00343    -0.01856     0.11877    -0.05289    -0.18853    -0.08703
 PZ  C  29  -0.00557     0.00115    -0.00697     0.00374    -0.00090     0.00044
  
  S  C  30  -0.07747    -0.23456     0.11503    -0.10060    -0.12534    -0.14525
 PX  C  30  -0.05270    -0.01586    -0.11445    -0.17178    -0.08423     0.08683
 PY  C  30  -0.09437     0.00890     0.04068    -0.10519     0.19356    -0.12031
 PZ  C  30  -0.00785    -0.00550    -0.00150    -0.00893     0.00085    -0.00477




    ROOT NO.   13          14          15          16          17          18

           -25.20636   -23.76625   -22.87515   -21.63813   -20.44801   -19.28165
  
  
  S  C   1  -0.01876     0.12296    -0.02882    -0.15918    -0.05021     0.01712
 PX  C   1   0.05116    -0.22918     0.00931     0.00223     0.21105     0.15810
 PY  C   1  -0.15860    -0.03687    -0.18516     0.13393    -0.11202     0.17730
 PZ  C   1  -0.00061    -0.00195    -0.00060    -0.00153     0.00050     0.00054
  
  S  C   2   0.17921    -0.14752     0.12426     0.11200     0.10420     0.01164
 PX  C   2   0.06929     0.04866     0.06885     0.17781    -0.13417    -0.13975
 PY  C   2  -0.19265    -0.03058    -0.19880     0.08887    -0.13513     0.07354
 PZ  C   2   0.00016     0.00269     0.00161     0.00138    -0.00255    -0.00244
  
  S  C   3  -0.13733     0.09053    -0.00747     0.10115    -0.04812    -0.14698
 PX  C   3   0.13451     0.16570     0.13634    -0.10259    -0.01486     0.00016
 PY  C   3  -0.18921     0.06827    -0.01638    -0.13311     0.14537    -0.08599
 PZ  C   3  -0.00775     0.01772     0.00809    -0.01251     0.00939    -0.00153
  
  S  C   4  -0.09013     0.11430    -0.01386    -0.08843    -0.06323    -0.14774
 PX  C   4  -0.10348     0.14311     0.07583     0.15577     0.11845    -0.06595
 PY  C   4   0.24074     0.11412     0.12319     0.01811    -0.09874     0.04804
 PZ  C   4   0.01474     0.01813     0.01636     0.01513    -0.00226     0.01221
  
  S  C   5   0.18904    -0.15204     0.11650    -0.12508     0.10559     0.02090
 PX  C   5  -0.08826     0.02289    -0.14953    -0.14541    -0.20099    -0.02659
 PY  C   5   0.18310     0.06637     0.15391    -0.09968    -0.03996    -0.16474
 PZ  C   5   0.00238     0.00670    -0.00455    -0.01160    -0.01987    -0.00210
  
  S  C   6  -0.03279     0.10868     0.01377     0.16189    -0.03512    -0.00708
 PX  C   6  -0.08829    -0.15379    -0.16039    -0.10331     0.02575     0.25993
 PY  C   6   0.12407    -0.18620     0.12912     0.03835     0.25134     0.03936
 PZ  C   6  -0.00063    -0.00444    -0.00317    -0.00476    -0.00061     0.00676
  
  S  C   7   0.12867     0.10531    -0.09516    -0.20996    -0.08059     0.15746
 PX  C   7   0.04181    -0.14109    -0.17839    -0.08929     0.01630     0.14524
 PY  C   7  -0.10193    -0.08435     0.05394    -0.04327     0.21923    -0.03407
 PZ  C   7  -0.00284    -0.01879    -0.01386    -0.01130     0.01623     0.02129
  
  S  C   8   0.12038     0.09900    -0.06841     0.21113    -0.06895     0.15962
 PX  C   8  -0.10210    -0.18839    -0.03637     0.05052     0.20112     0.07347
 PY  C   8   0.06423    -0.07853    -0.17824     0.05242    -0.10300     0.11766
 PZ  C   8  -0.00191    -0.01381    -0.00138     0.00762     0.00504     0.01842
  
  S  C   9  -0.01443    -0.23387     0.04749    -0.01229     0.00504     0.00126
 PX  C   9   0.01138    -0.01702     0.11469    -0.17335    -0.17126    -0.15514
 PY  C   9  -0.00146     0.07695    -0.22000    -0.09171    -0.10101    -0.09820
 PZ  C   9   0.00103    -0.01193     0.00587     0.01595     0.00488     0.01772
  
  S  C  10   0.01989    -0.22584     0.03639    -0.00567     0.00924    -0.01584
 PX  C  10   0.01237     0.03485    -0.10898     0.19137    -0.17119    -0.15994
 PY  C  10  -0.01357    -0.07479     0.22885     0.09903    -0.08215    -0.06329
 PZ  C  10  -0.00012    -0.00381    -0.00059     0.01191    -0.00209     0.00394
  
  S  C  11  -0.12134     0.09662    -0.05535     0.22037     0.06781    -0.13831
 PX  C  11  -0.10615     0.16248     0.04237    -0.06557     0.19299     0.09428
 PY  C  11   0.05604     0.07102     0.16145    -0.05220    -0.10764     0.15193
 PZ  C  11   0.00499    -0.01003    -0.00099     0.00927    -0.01036    -0.00481
  
  S  H  12  -0.12787     0.06251    -0.10420     0.11114     0.16211    -0.12781
  
  S  C  13  -0.11305     0.11144    -0.07359    -0.20223     0.06651    -0.16897
 PX  C  13   0.02800     0.14663     0.16274     0.06091     0.01422     0.17107
 PY  C  13  -0.09543     0.09141    -0.04170     0.04506     0.21921    -0.01734
 PZ  C  13  -0.00214    -0.00883     0.00052     0.00642    -0.00487     0.00201
  
  S  H  14   0.13183     0.05379    -0.14168    -0.10683    -0.15865     0.15297
  
  S  H  15   0.06001     0.15832     0.08863    -0.16445    -0.03293    -0.16673
  
  S  H  16   0.22409    -0.04502     0.20033     0.05346     0.09566    -0.08286
  
  S  H  17   0.22466    -0.04494     0.19258    -0.06986     0.09368    -0.08201
  
  S  H  18   0.03630     0.15751     0.11208     0.15592    -0.03996    -0.20078
  
  S  H  19   0.12489     0.06114    -0.13050     0.11537    -0.15554     0.12691
  
  S  H  20  -0.12213     0.06523    -0.10871    -0.08849     0.15870    -0.15296
  
  S  C  21  -0.14644    -0.17107     0.12220    -0.12607    -0.11556    -0.03072
 PX  C  21  -0.07813    -0.01126     0.14199     0.16644    -0.19169     0.00555
 PY  C  21   0.16565    -0.02753    -0.15450     0.12396    -0.01611    -0.16160
 PZ  C  21   0.00519     0.00252    -0.00921    -0.00345     0.01225    -0.00469
  
  S  C  22   0.02332     0.14148    -0.00568     0.18901     0.05783     0.01440
 PX  C  22  -0.09650     0.12157     0.15421     0.10590    -0.01138     0.25673
 PY  C  22   0.06859     0.19430    -0.10401    -0.05638     0.24188     0.05191
 PZ  C  22   0.00722     0.00315    -0.01151    -0.00387     0.00917    -0.01511
  
  S  C  23  -0.01957     0.12206    -0.00513    -0.16905     0.03743    -0.01592
 PX  C  23   0.02519     0.24962    -0.01709    -0.01677     0.22085     0.16712
 PY  C  23  -0.14455     0.01561     0.18723    -0.13988    -0.12775     0.18402
 PZ  C  23  -0.00943    -0.01777     0.01295    -0.00458    -0.02784    -0.00323
  
  S  C  24  -0.13715    -0.18190     0.11728     0.11542    -0.11326    -0.00863
 PX  C  24   0.06342    -0.05500    -0.06656    -0.15874    -0.13403    -0.16797
 PY  C  24  -0.18261    -0.00522     0.19884    -0.09362    -0.15671     0.05985
 PZ  C  24  -0.01082    -0.00195     0.01691    -0.00355    -0.01952     0.00864
  
  S  H  25  -0.19252    -0.07663     0.19723    -0.07552    -0.11734     0.08355
  
  S  H  26  -0.04796     0.14755     0.09938     0.17081     0.01984     0.19997
  
  S  H  27  -0.07871     0.15631     0.09747    -0.17864     0.02403     0.17529
  
  S  H  28  -0.19443    -0.07770     0.19416     0.05487    -0.10249     0.08884
  
  S  C  29   0.08322     0.09377    -0.02573    -0.10691     0.05154     0.14412
 PX  C  29  -0.08130    -0.15464    -0.05759    -0.16959     0.11240    -0.10063
 PY  C  29   0.23570    -0.09246    -0.13912    -0.02271    -0.09026     0.01359
 PZ  C  29  -0.00038     0.00174     0.00197     0.01452    -0.00079    -0.00155
  
  S  C  30   0.14065     0.10301    -0.02884     0.08213     0.04353     0.15720
 PX  C  30   0.14325    -0.16192    -0.14625     0.11047    -0.00713    -0.01079
 PY  C  30  -0.15977    -0.07936     0.02083     0.13201     0.15025    -0.06902
 PZ  C  30  -0.00061    -0.00991     0.00285     0.02018    -0.00237     0.00474




    ROOT NO.   19          20          21          22          23          24

           -18.38768   -17.19661   -16.99894   -16.74938   -15.95605   -15.38341
  
  
  S  C   1   0.15719     0.03738     0.02647    -0.12246     0.05449     0.04856
 PX  C   1  -0.07648    -0.19982     0.01744     0.00211     0.13653     0.15213
 PY  C   1  -0.16524     0.15569     0.02731     0.09095     0.17601    -0.03370
 PZ  C   1   0.00281     0.00118    -0.00349     0.00810     0.00444    -0.01824
  
  S  C   2  -0.16711    -0.01056     0.01057     0.07400    -0.00467     0.01331
 PX  C   2  -0.10404     0.19294    -0.01949     0.08433    -0.15188    -0.15033
 PY  C   2   0.01961     0.10465     0.10634    -0.24847    -0.05758     0.25597
 PZ  C   2   0.00297     0.00317    -0.00432     0.01002     0.00540    -0.01895
  
  S  C   3   0.06313    -0.04405     0.07775    -0.19404    -0.08099     0.04900
 PX  C   3   0.17422     0.04842     0.03846    -0.07687     0.23886    -0.13291
 PY  C   3   0.07125    -0.27500    -0.07455     0.08179    -0.03167    -0.05829
 PZ  C   3   0.01293    -0.01171    -0.00418     0.01508     0.02857    -0.02813
  
  S  C   4  -0.05058    -0.03825    -0.10105     0.19120    -0.07000    -0.03260
 PX  C   4  -0.11758    -0.24429    -0.00935    -0.03455     0.11974     0.15550
 PY  C   4  -0.11669     0.16502     0.00010     0.07386     0.22380     0.03671
 PZ  C   4  -0.02766     0.01297     0.00002     0.02067     0.05774    -0.00741
  
  S  C   5   0.16084     0.04070    -0.00625    -0.06414    -0.00335    -0.03768
 PX  C   5   0.01393     0.21001    -0.04162     0.16582    -0.14955    -0.15495
 PY  C   5   0.10235     0.10142     0.07014    -0.17583    -0.16966     0.17285
 PZ  C   5  -0.00470     0.02741    -0.00420     0.02721     0.00514    -0.03200
  
  S  C   6  -0.15526    -0.01598    -0.01715     0.11243     0.05014    -0.04517
 PX  C   6   0.14383     0.08423     0.00507    -0.06392     0.28503    -0.11797
 PY  C   6   0.00914    -0.24938    -0.03534    -0.00259     0.05540     0.00710
 PZ  C   6   0.00435     0.00744    -0.00370     0.01102     0.01412    -0.02661
  
  S  C   7   0.10562    -0.02453    -0.02352     0.05156     0.07398    -0.00574
 PX  C   7  -0.15878    -0.07139    -0.09068     0.19848    -0.17150     0.10225
 PY  C   7  -0.07277    -0.09814     0.20495    -0.14417    -0.03621    -0.11885
 PZ  C   7  -0.02430    -0.00585    -0.00121     0.03363    -0.02000    -0.00621
  
  S  C   8  -0.10783    -0.04042     0.02084    -0.05892     0.08856     0.03969
 PX  C   8   0.16890    -0.00595    -0.15057     0.03100    -0.16372    -0.01225
 PY  C   8   0.06943    -0.03030     0.17449    -0.22827    -0.12435    -0.08684
 PZ  C   8   0.00048     0.02045     0.00719    -0.00169     0.00274    -0.01665
  
  S  C   9   0.12179     0.15861    -0.17523     0.05515    -0.08371     0.06107
 PX  C   9  -0.03981     0.09361     0.04325     0.02327     0.07855     0.02651
 PY  C   9   0.09098    -0.22389    -0.10911     0.02100    -0.09110     0.03101
 PZ  C   9  -0.00160     0.03725     0.01275     0.00341    -0.00946    -0.01846
  
  S  C  10  -0.15260     0.09059     0.20380    -0.04832    -0.07472    -0.06981
 PX  C  10  -0.04859    -0.10806     0.03108    -0.06779    -0.04973     0.00495
 PY  C  10   0.04840     0.25454    -0.02780     0.00284     0.09833     0.02475
 PZ  C  10  -0.00453     0.02308     0.00325     0.01314    -0.01183    -0.01282
  
  S  C  11   0.09784    -0.01927    -0.04122    -0.04395     0.08132    -0.01276
 PX  C  11   0.18577     0.07010    -0.16411     0.07521     0.12140     0.02520
 PY  C  11   0.07571    -0.01099     0.25959     0.10646     0.07004    -0.15535
 PZ  C  11  -0.00763     0.01265     0.02222     0.00256    -0.01486    -0.02164
  
  S  H  12   0.06755     0.02694    -0.29421    -0.06842     0.04573     0.12390
  
  S  C  13  -0.07346    -0.05128     0.03248     0.04683     0.09538    -0.00916
 PX  C  13  -0.16075     0.05609    -0.13960    -0.11277     0.14166     0.17937
 PY  C  13  -0.09906     0.02644     0.30159     0.02293     0.05442    -0.18429
 PZ  C  13   0.01428     0.02182     0.00393     0.00852    -0.02084    -0.01049
  
  S  H  14   0.03622     0.01919    -0.21394     0.22281    -0.00739     0.13214
  
  S  H  15   0.22340    -0.00838    -0.01530    -0.12561    -0.16302    -0.02139
  
  S  H  16  -0.13566    -0.01061    -0.08787     0.26447    -0.01595    -0.25098
  
  S  H  17   0.14249     0.00991     0.07369    -0.23851    -0.06775     0.18424
  
  S  H  18  -0.19393    -0.07588    -0.01257     0.11187    -0.22297     0.08049
  
  S  H  19  -0.06154    -0.04745     0.21477    -0.21750     0.01642    -0.04959
  
  S  H  20  -0.04438    -0.03193     0.31182     0.08701     0.03714    -0.21286
  
  S  C  21  -0.16347     0.00820    -0.00566    -0.07003     0.00730     0.04138
 PX  C  21   0.05220    -0.17822    -0.15724    -0.14030     0.13925    -0.16416
 PY  C  21   0.12513    -0.09086     0.15786     0.17008     0.14962     0.24075
 PZ  C  21   0.00354     0.02014     0.01148     0.01056    -0.00318    -0.00395
  
  S  C  22   0.16829     0.02080     0.05967     0.10744     0.03606     0.05255
 PX  C  22   0.15469    -0.07998    -0.01274     0.05657    -0.24167    -0.15634
 PY  C  22  -0.04141     0.23807    -0.02154    -0.02618    -0.08466    -0.06040
 PZ  C  22  -0.00547     0.01765     0.00270    -0.00028     0.01653     0.00180
  
  S  C  23  -0.14972     0.00829    -0.05959    -0.09516     0.06056    -0.04558
 PX  C  23  -0.12383     0.17483     0.06016    -0.02957    -0.17238     0.14585
 PY  C  23  -0.13216    -0.18755    -0.00549    -0.05913    -0.15239     0.01075
 PZ  C  23   0.00926    -0.02510     0.00315     0.01016     0.00671    -0.00709
  
  S  C  24   0.16069     0.01660    -0.00099     0.06098    -0.01495    -0.01608
 PX  C  24  -0.04037    -0.18115    -0.09397    -0.04694     0.20319    -0.15893
 PY  C  24   0.05287    -0.12012     0.20427     0.20983     0.04771     0.25446
 PZ  C  24   0.01787    -0.00993     0.02921     0.03393    -0.00743     0.02473
  
  S  H  25  -0.14564    -0.00477    -0.19298    -0.22199    -0.04234    -0.23199
  
  S  H  26   0.20835    -0.05675     0.01719     0.10093    -0.19081    -0.11497
  
  S  H  27  -0.21717    -0.05359    -0.00860    -0.10449    -0.15836     0.04800
  
  S  H  28   0.13358    -0.00159     0.20198     0.20957    -0.05799     0.24913
  
  S  C  29   0.05243    -0.05432     0.17902     0.14107    -0.08762     0.00065
 PX  C  29  -0.16067     0.20991     0.05371     0.03060    -0.09937     0.17842
 PY  C  29  -0.10627    -0.16719    -0.04589    -0.05644    -0.16746     0.03653
 PZ  C  29   0.01631     0.01609     0.01055     0.00656    -0.00262    -0.03010
  
  S  C  30  -0.06916    -0.04645    -0.17443    -0.14098    -0.07557    -0.02243
 PX  C  30   0.14779    -0.03139     0.04031     0.01653    -0.21533    -0.19452
 PY  C  30   0.01906     0.27521    -0.06999    -0.07294    -0.00386    -0.04910
 PZ  C  30   0.02333     0.02497     0.00543     0.00771    -0.02697    -0.02268




    ROOT NO.   25          26          27          28          29          30

           -14.94654   -14.91045   -14.75679   -14.39756   -13.73460   -13.44316
  
  
  S  C   1   0.03783     0.03057    -0.03576     0.00495     0.05454    -0.00016
 PX  C   1   0.15622    -0.21006     0.04491     0.01078     0.05793    -0.01415
 PY  C   1  -0.05624    -0.11500    -0.21037     0.05403     0.09822     0.08719
 PZ  C   1   0.00927     0.02798     0.04618     0.14997    -0.01441    -0.23780
  
  S  C   2  -0.00037    -0.09926    -0.07044     0.02342    -0.02073     0.01663
 PX  C   2  -0.15584     0.14876    -0.07491    -0.00006    -0.08580     0.01371
 PY  C   2   0.21174    -0.07440    -0.12680     0.03296    -0.04112    -0.06240
 PZ  C   2   0.01865     0.03327     0.05274     0.18373    -0.01492    -0.24238
  
  S  C   3  -0.01190     0.01936     0.04005    -0.02096     0.01961     0.00639
 PX  C   3  -0.16207     0.03634     0.01779     0.00007     0.17309     0.03071
 PY  C   3  -0.02949     0.01885     0.19736    -0.07172     0.01056     0.05395
 PZ  C   3   0.03557     0.04007     0.08423     0.28491    -0.00519    -0.26790
  
  S  C   4   0.03166     0.00258     0.04396    -0.00730     0.02585    -0.00915
 PX  C   4   0.14823     0.01579     0.03066    -0.04346     0.21251     0.01732
 PY  C   4   0.03989    -0.04078    -0.18497     0.01007     0.19948     0.01493
 PZ  C   4   0.05134     0.03572     0.05372     0.29314     0.02463    -0.27658
  
  S  C   5  -0.03550     0.08550    -0.02823    -0.00324    -0.02828     0.00577
 PX  C   5  -0.12320    -0.05849    -0.03023     0.00510    -0.18787     0.02822
 PY  C   5   0.12667    -0.14067    -0.23510     0.06481    -0.05982     0.05837
 PZ  C   5   0.00545     0.01844     0.04435     0.19765    -0.02080    -0.25746
  
  S  C   6  -0.03833    -0.03020     0.01992    -0.00497     0.03798     0.00930
 PX  C   6  -0.12830     0.21438    -0.02955    -0.02507     0.17753     0.02967
 PY  C   6   0.03335     0.09665     0.24719    -0.06527     0.02813    -0.08147
 PZ  C   6   0.00075     0.03290     0.04581     0.15467    -0.00873    -0.24594
  
  S  C   7   0.03328    -0.05515     0.03955    -0.00217    -0.02593     0.01018
 PX  C   7   0.14764    -0.09096    -0.03179    -0.04565    -0.18161     0.02070
 PY  C   7  -0.28806    -0.23402    -0.07503     0.10044    -0.08021     0.05326
 PZ  C   7   0.06056     0.01006     0.05195     0.24491    -0.04997    -0.11093
  
  S  C   8   0.00626     0.04888     0.03966    -0.00271    -0.00666    -0.01151
 PX  C   8   0.05753     0.21643    -0.13464    -0.02606    -0.19826     0.04414
 PY  C   8  -0.19001    -0.08233     0.22569    -0.02392    -0.21178    -0.00424
 PZ  C   8   0.03988     0.04454     0.06597     0.25377    -0.03518    -0.10966
  
  S  C   9   0.00125     0.00664    -0.02182    -0.00045     0.00686    -0.00815
 PX  C   9  -0.06294    -0.22998     0.13632     0.02778     0.19449    -0.04311
 PY  C   9  -0.07942    -0.09302     0.09263     0.03570     0.15863     0.04890
 PZ  C   9   0.07454     0.06448     0.07738     0.29525    -0.03021     0.04442
  
  S  C  10  -0.01685    -0.03698     0.01104     0.01753    -0.00271    -0.01805
 PX  C  10   0.10317     0.25063     0.10165    -0.09547     0.22716    -0.00675
 PY  C  10   0.11358     0.12840     0.03030    -0.06122     0.06571    -0.06667
 PZ  C  10   0.08637     0.05962     0.07531     0.28271    -0.01126     0.04090
  
  S  C  11  -0.01246     0.07265    -0.01758     0.00552    -0.00999     0.01235
 PX  C  11  -0.08105    -0.20344    -0.09189     0.09829    -0.23121     0.02600
 PY  C  11   0.24979    -0.01556     0.11922    -0.11381    -0.17578     0.02296
 PZ  C  11   0.07750     0.05178     0.07886     0.21377     0.02450     0.16880
  
  S  H  12  -0.22451    -0.04558    -0.13864     0.11906     0.02903    -0.01043
  
  S  C  13   0.01676    -0.05706    -0.05201     0.02265     0.03854    -0.00596
 PX  C  13  -0.09784     0.03318     0.06811     0.00828    -0.22528     0.01398
 PY  C  13   0.18786     0.18530    -0.19249    -0.02024    -0.12464    -0.01913
 PZ  C  13   0.05444     0.03261     0.08529     0.22952     0.02328     0.18130
  
  S  H  14   0.29296     0.11314     0.05890    -0.09477    -0.03499    -0.02644
  
  S  H  15  -0.01048     0.20443     0.12979    -0.04619    -0.08290    -0.06671
  
  S  H  16  -0.22223     0.07259     0.03969    -0.01401    -0.01769     0.06033
  
  S  H  17   0.13249    -0.05294    -0.18519     0.04358     0.01533     0.04646
  
  S  H  18   0.09474    -0.21034     0.03780     0.01758    -0.15302    -0.01956
  
  S  H  19  -0.16292    -0.12989     0.24088    -0.01390    -0.09590    -0.02448
  
  S  H  20   0.18997     0.10190    -0.19025    -0.00904     0.01284    -0.02322
  
  S  C  21  -0.00517     0.08441     0.04422    -0.01407     0.00885     0.01277
 PX  C  21   0.09033     0.05552    -0.06212     0.00280    -0.22143     0.07495
 PY  C  21  -0.16855     0.16189    -0.12146     0.07216    -0.14834     0.01393
 PZ  C  21   0.04009     0.00615     0.06096     0.13442     0.02743     0.24504
  
  S  C  22  -0.02009    -0.04784     0.02104    -0.00901    -0.03841    -0.01176
 PX  C  22   0.01494    -0.17347    -0.12903     0.05907     0.23971    -0.05777
 PY  C  22   0.10982    -0.15421     0.22636    -0.10194     0.11413    -0.01396
 PZ  C  22   0.03282     0.00912     0.05923     0.09613     0.00227     0.22655
  
  S  C  23   0.04328     0.01615     0.00514    -0.00280    -0.06050     0.01903
 PX  C  23  -0.06530     0.19262     0.13841    -0.04233     0.03794     0.06076
 PY  C  23  -0.11547     0.18406    -0.23534     0.09037     0.04987    -0.02664
 PZ  C  23   0.02089     0.00058     0.01840     0.12122     0.01933     0.22820
  
  S  C  24   0.01890    -0.09094     0.05873    -0.01487     0.04963    -0.00235
 PX  C  24   0.07823    -0.15276    -0.14945     0.05622    -0.07708    -0.02771
 PY  C  24  -0.13516     0.02888     0.02420    -0.00809    -0.05407    -0.00992
 PZ  C  24   0.01840     0.01459     0.06172     0.15252     0.03132     0.27078
  
  S  H  25   0.16071    -0.05833     0.08239    -0.06393     0.02096     0.02175
  
  S  H  26   0.00301    -0.18364    -0.11103     0.04871     0.21175    -0.06864
  
  S  H  27  -0.09576     0.23834    -0.11866     0.04816     0.03075     0.01214
  
  S  H  28  -0.12002     0.05191     0.11358    -0.02972     0.02397     0.02239
  
  S  C  29   0.01285    -0.01694    -0.04520     0.00734     0.00527    -0.00239
 PX  C  29  -0.10465    -0.00774     0.09000     0.00846     0.22312    -0.05125
 PY  C  29  -0.12213     0.10046    -0.13409     0.07117     0.19106    -0.00019
 PZ  C  29   0.08058     0.02733     0.08742     0.22270     0.02216     0.31037
  
  S  C  30  -0.05691     0.03506    -0.05300     0.01683    -0.03191    -0.00353
 PX  C  30   0.07787     0.02200    -0.08618    -0.01404     0.19568    -0.02278
 PY  C  30   0.07368    -0.02758     0.13381    -0.06787     0.01866    -0.03024
 PZ  C  30   0.06847     0.02629     0.09921     0.23341     0.04950     0.32311




    ROOT NO.   31          32          33          34          35          36

           -13.02760   -12.91317   -12.19695   -11.78479   -11.64943   -11.52185
  
  
  S  C   1  -0.02407    -0.00743     0.02186     0.00544    -0.00673     0.01909
 PX  C   1   0.08236    -0.29343    -0.05768    -0.05569     0.03056     0.15569
 PY  C   1  -0.22241    -0.09272     0.21554     0.07394    -0.05514     0.08825
 PZ  C   1  -0.07640    -0.02283    -0.00359    -0.11173    -0.29408    -0.00439
  
  S  C   2  -0.03002    -0.00969    -0.01869    -0.02317     0.01158    -0.03494
 PX  C   2  -0.06962     0.29846     0.01183     0.03097    -0.01473    -0.19051
 PY  C   2   0.09357     0.08538    -0.20059    -0.09786     0.04799    -0.13901
 PZ  C   2  -0.08517    -0.02015     0.02642    -0.06172    -0.20582     0.00584
  
  S  C   3   0.01212     0.03995     0.01162     0.01246    -0.00427     0.00602
 PX  C   3   0.00615    -0.24344    -0.06946    -0.10756     0.07514     0.20526
 PY  C   3  -0.04294    -0.07967     0.26110     0.17484    -0.09616     0.14118
 PZ  C   3  -0.10094    -0.03369     0.05932     0.01285    -0.02772     0.02130
  
  S  C   4   0.00559    -0.03917     0.00087    -0.00105     0.01080    -0.01954
 PX  C   4  -0.06918     0.15886     0.15546     0.13721    -0.06868    -0.17283
 PY  C   4   0.01898    -0.01403    -0.21859    -0.16043     0.10801    -0.14371
 PZ  C   4  -0.08062    -0.00556    -0.02445    -0.01946    -0.00278    -0.03811
  
  S  C   5  -0.01164     0.02384    -0.02899    -0.03463     0.01975     0.02620
 PX  C   5   0.06839    -0.18513    -0.12260    -0.10670     0.07674     0.16650
 PY  C   5  -0.19863    -0.05741     0.20110     0.06895    -0.06103     0.09704
 PZ  C   5  -0.06631    -0.04662    -0.05101    -0.11540    -0.19367    -0.00346
  
  S  C   6   0.00614    -0.02217    -0.00115     0.00383     0.00636    -0.01111
 PX  C   6  -0.09067     0.19326     0.08355     0.06672    -0.01931    -0.11447
 PY  C   6   0.23123     0.06274    -0.21547    -0.06646     0.06062    -0.10830
 PZ  C   6  -0.07229    -0.02295    -0.03238    -0.13274    -0.29371    -0.01616
  
  S  C   7   0.00003    -0.08669    -0.00371    -0.04000     0.02829     0.00509
 PX  C   7  -0.01886     0.19078     0.05428     0.06713    -0.07300    -0.21086
 PY  C   7  -0.14013     0.03946    -0.07826    -0.14303     0.07647    -0.15000
 PZ  C   7  -0.05831     0.04074     0.07020     0.08076     0.14486    -0.03241
  
  S  C   8   0.00154     0.07879    -0.02611    -0.04941     0.03071     0.01014
 PX  C   8  -0.14447     0.00712    -0.00874    -0.17118     0.04470     0.21942
 PY  C   8   0.10004    -0.03771     0.11600     0.13641    -0.09068     0.12746
 PZ  C   8  -0.01795     0.00804     0.00436     0.08662     0.17934     0.02968
  
  S  C   9   0.02854    -0.06606    -0.00117     0.01219    -0.01112    -0.01465
 PX  C   9   0.15907    -0.06597     0.02992     0.21556    -0.06317    -0.22167
 PY  C   9  -0.22582    -0.04298     0.05006    -0.20952     0.13856    -0.15176
 PZ  C   9   0.02736     0.01732     0.02072     0.15729     0.31023     0.04815
  
  S  C  10   0.03552     0.05980    -0.00230     0.00768     0.01445    -0.02394
 PX  C  10  -0.11085    -0.01938     0.06294    -0.18360     0.06133     0.20193
 PY  C  10   0.24716    -0.08746     0.00846     0.23783    -0.12675     0.14590
 PZ  C  10   0.00796     0.03433     0.06603     0.12461     0.30652     0.03756
  
  S  C  11  -0.01141    -0.07000     0.03182    -0.05553     0.02302     0.00884
 PX  C  11   0.09656    -0.03231    -0.03267     0.14687    -0.03822    -0.19107
 PY  C  11  -0.07895    -0.03667     0.15998    -0.18258     0.05015    -0.13809
 PZ  C  11   0.02557     0.02837     0.04688     0.01110     0.15680     0.03574
  
  S  H  12   0.10342    -0.02138    -0.14786     0.22781    -0.07080     0.03148
  
  S  C  13   0.00917     0.06889     0.00546    -0.03875     0.01776    -0.01023
 PX  C  13   0.03507     0.20406     0.06015    -0.11203     0.01990     0.22693
 PY  C  13   0.10331     0.02633    -0.08842     0.12010    -0.06538     0.14816
 PZ  C  13   0.03269    -0.00982    -0.00486     0.07710     0.13912    -0.01526
  
  S  H  14   0.10313     0.02040     0.09968     0.16101    -0.09943     0.02981
  
  S  H  15   0.13682     0.22341    -0.14774    -0.03217     0.02865    -0.15344
  
  S  H  16  -0.12352     0.05139     0.18000     0.09731    -0.05478     0.02416
  
  S  H  17  -0.20358     0.05073     0.23494     0.11301    -0.08598     0.02141
  
  S  H  18   0.09613    -0.20126    -0.08622    -0.06391     0.02953     0.11580
  
  S  H  19   0.14685     0.00336     0.10194     0.19814    -0.10423     0.02120
  
  S  H  20   0.07387    -0.03591    -0.11033     0.16440    -0.06472     0.02356
  
  S  C  21  -0.00646    -0.02044     0.02754    -0.03538     0.00059     0.01715
 PX  C  21  -0.13147    -0.16847    -0.10787     0.09874    -0.02775    -0.15316
 PY  C  21   0.15352    -0.10004     0.14503    -0.07213     0.00236    -0.09757
 PZ  C  21   0.04744     0.03915    -0.03005    -0.11547    -0.21125     0.01875
  
  S  C  22  -0.02258     0.01907    -0.00495     0.00990     0.02042    -0.00805
 PX  C  22   0.17444     0.16237     0.06221    -0.06028    -0.01581     0.10775
 PY  C  22  -0.21203     0.11113    -0.16119     0.07777     0.01285     0.10818
 PZ  C  22   0.01406     0.02729    -0.07076    -0.11367    -0.28716     0.01253
  
  S  C  23  -0.00819     0.02086    -0.00685    -0.01014    -0.00939     0.02507
 PX  C  23  -0.14016    -0.23078    -0.06650     0.05835    -0.03700    -0.13986
 PY  C  23   0.23202    -0.12625     0.16655    -0.06408     0.01039    -0.08582
 PZ  C  23   0.05510     0.04648    -0.06785    -0.11041    -0.29841     0.02068
  
  S  C  24  -0.01200    -0.00142     0.02661    -0.02466     0.00181    -0.04343
 PX  C  24   0.11954     0.25044     0.02091    -0.04706     0.00734     0.17444
 PY  C  24  -0.17168     0.12330    -0.19319     0.11304     0.01884     0.14909
 PZ  C  24   0.01502     0.03171    -0.10401    -0.05130    -0.23485     0.00965
  
  S  H  25  -0.19435    -0.01400    -0.17266     0.11286    -0.01165     0.01538
  
  S  H  26   0.16274     0.17087     0.06198    -0.05264     0.00059     0.11134
  
  S  H  27   0.12203    -0.21114     0.10787    -0.02742    -0.00980    -0.13777
  
  S  H  28  -0.20319    -0.02188    -0.17930     0.11918    -0.00764     0.02100
  
  S  C  29  -0.00397     0.04006    -0.00607    -0.01055     0.00395    -0.01144
 PX  C  29   0.14978     0.14073     0.13021    -0.12228     0.01845     0.15835
 PY  C  29  -0.04757     0.01529    -0.24563     0.20913    -0.05037     0.15102
 PZ  C  29   0.05603     0.01704     0.00224    -0.06527    -0.05731    -0.00803
  
  S  C  30  -0.00447    -0.01418    -0.01871     0.00963    -0.00132     0.02918
 PX  C  30  -0.02076    -0.24167    -0.07550     0.14624    -0.03219    -0.20673
 PY  C  30   0.12183    -0.11067     0.27478    -0.19430     0.03696    -0.15365
 PZ  C  30   0.05447    -0.01379    -0.03220    -0.01967    -0.07333    -0.04346




    ROOT NO.   37          38          39          40          41          42

           -10.70883    -9.79304    -9.66919    -8.32283    -7.96948    -6.63292
  
  
  S  C   1  -0.00156     0.00334     0.00033    -0.00132     0.00444     0.00077
 PX  C   1   0.00714    -0.00141     0.00568    -0.00066     0.00659     0.00040
 PY  C   1  -0.01713     0.01089    -0.00719    -0.00239     0.00474    -0.00073
 PZ  C   1   0.06577     0.21241     0.32508     0.24794     0.24573    -0.18508
  
  S  C   2  -0.00091     0.00238    -0.00128    -0.00447    -0.00369     0.00736
 PX  C   2  -0.00276    -0.00185    -0.00452    -0.00166    -0.01149     0.00456
 PY  C   2   0.01949    -0.00727     0.01632     0.00545    -0.00895     0.00402
 PZ  C   2   0.17752    -0.09178     0.35746     0.36126    -0.00393    -0.23176
  
  S  C   3  -0.02039     0.03113    -0.01135    -0.00622     0.02796    -0.00793
 PX  C   3  -0.00287     0.01080    -0.00009    -0.00669     0.02616    -0.00236
 PY  C   3  -0.03920     0.03416    -0.03179    -0.01497     0.02002    -0.00643
 PZ  C   3   0.21031    -0.37872     0.08649     0.03619    -0.30722     0.12763
  
  S  C   4  -0.00704    -0.00999    -0.01421     0.00031    -0.00812    -0.00144
 PX  C   4  -0.00050     0.02186     0.01410     0.00469     0.02872     0.01373
 PY  C   4   0.04165     0.01258     0.06143     0.01850     0.05226     0.01856
 PZ  C   4  -0.18147    -0.13982    -0.35028    -0.06782    -0.32229    -0.15221
  
  S  C   5   0.00420    -0.00672     0.00451     0.00057    -0.00333     0.00073
 PX  C   5   0.02794    -0.03437     0.02881     0.02585    -0.00440    -0.01628
 PY  C   5  -0.02212     0.00363    -0.01421    -0.00162    -0.00571    -0.00454
 PZ  C   5  -0.18537     0.26194    -0.25093    -0.34154    -0.03139     0.21689
  
  S  C   6   0.00454    -0.00130     0.00432     0.00294     0.00407     0.00028
 PX  C   6  -0.00175    -0.00382    -0.00312     0.00293    -0.00219    -0.00177
 PY  C   6   0.02246    -0.01039     0.01230     0.00516     0.00013     0.00079
 PZ  C   6  -0.10206     0.39978     0.00756    -0.19879     0.23053     0.19035
  
  S  C   7   0.00433    -0.00901     0.00304     0.00174    -0.00179     0.00514
 PX  C   7  -0.05291     0.05094    -0.01864     0.02966    -0.00602    -0.05071
 PY  C   7  -0.01473     0.01082     0.00351     0.02162    -0.00222    -0.01985
 PZ  C   7   0.32007    -0.27402     0.10325    -0.21336     0.02945     0.38345
  
  S  C   8  -0.02026    -0.00498    -0.00368     0.01789     0.00038    -0.02139
 PX  C   8  -0.01001    -0.00530     0.01298    -0.01287    -0.01933     0.01764
 PY  C   8   0.00901     0.00260    -0.00474    -0.02106    -0.01825     0.01424
 PZ  C   8  -0.31052    -0.08111    -0.30272     0.20443     0.02554    -0.37701
  
  S  C   9   0.00473    -0.00009    -0.00718     0.00093    -0.00213     0.00103
 PX  C   9   0.01011     0.00548    -0.01736     0.01374     0.01977    -0.01192
 PY  C   9  -0.02201    -0.01030    -0.00586     0.01820     0.04218    -0.00020
 PZ  C   9  -0.27779     0.03255    -0.01717     0.23696     0.34353     0.01583
  
  S  C  10   0.02276    -0.00107     0.00665    -0.01544     0.02604     0.00188
 PX  C  10  -0.02375    -0.02190     0.00291     0.00127    -0.00694     0.01339
 PY  C  10   0.00914     0.00179    -0.00815    -0.00663    -0.01751     0.00414
 PZ  C  10   0.27835     0.04812     0.02788    -0.23679     0.37209     0.01128
  
  S  C  11   0.00469    -0.00611    -0.00171    -0.00708     0.00064    -0.00609
 PX  C  11   0.03734     0.03184    -0.00570    -0.01475     0.01238    -0.02892
 PY  C  11  -0.02970    -0.01967    -0.00134     0.00159     0.01218     0.00060
 PZ  C  11   0.34814     0.29663    -0.04414    -0.20535     0.00909    -0.35948
  
  S  H  12   0.02611     0.01567     0.00070     0.00123    -0.00918     0.00665
  
  S  C  13   0.00223     0.00157     0.00064    -0.00545    -0.00041    -0.01614
 PX  C  13  -0.02644     0.01003     0.02986    -0.00313    -0.02546     0.01780
 PY  C  13  -0.00714     0.00594     0.01453    -0.00015    -0.01848     0.01358
 PZ  C  13  -0.34793     0.08440     0.25852     0.21115    -0.01773     0.38202
  
  S  H  14  -0.00909     0.01291    -0.01341    -0.00769    -0.00648    -0.00473
  
  S  H  15   0.01193    -0.00943     0.00432     0.00326    -0.00883    -0.00024
  
  S  H  16  -0.01585     0.00408    -0.01015     0.00221    -0.00126    -0.00748
  
  S  H  17  -0.02751     0.01171    -0.01941    -0.00492    -0.00459    -0.00346
  
  S  H  18   0.00668    -0.00662     0.00510     0.00301    -0.00292    -0.00365
  
  S  H  19   0.01246     0.00606    -0.00541    -0.01543    -0.01126     0.01063
  
  S  H  20   0.00280     0.00474     0.00277     0.00498    -0.00888     0.00831
  
  S  C  21  -0.00097    -0.00371    -0.00628     0.00877    -0.00265     0.00984
 PX  C  21   0.02906     0.00835    -0.02517     0.01694     0.00576     0.00552
 PY  C  21  -0.00600    -0.00806    -0.00419     0.00126     0.00672     0.00187
 PZ  C  21   0.22586     0.05408    -0.34726     0.35502    -0.03246     0.23028
  
  S  C  22  -0.00404     0.01528     0.01742    -0.01127    -0.01453    -0.01143
 PX  C  22  -0.00190    -0.01610    -0.01788     0.01526     0.01447     0.01467
 PY  C  22   0.00308     0.01602     0.01465    -0.00660    -0.01555    -0.00521
 PZ  C  22   0.11371    -0.20953    -0.32892     0.22419     0.27473     0.19915
  
  S  C  23  -0.01061    -0.01135     0.00630    -0.00658     0.00732     0.00036
 PX  C  23   0.01334    -0.03628    -0.01852    -0.02023     0.03309    -0.02357
 PY  C  23  -0.00252     0.00964     0.00035     0.00742    -0.01471     0.00522
 PZ  C  23  -0.08615    -0.36900    -0.03056    -0.22065     0.30049    -0.18654
  
  S  C  24  -0.00883    -0.01451     0.00356    -0.01187     0.00444    -0.01011
 PX  C  24  -0.02118     0.01007     0.02360    -0.00311    -0.01505     0.00515
 PY  C  24   0.04307     0.04972    -0.02245     0.03968    -0.00897     0.02506
 PZ  C  24  -0.20150    -0.25143     0.22115    -0.34458     0.00887    -0.22851
  
  S  H  25   0.01285     0.00803     0.00135    -0.00401    -0.00240    -0.00635
  
  S  H  26  -0.00624    -0.00452    -0.00388     0.00811     0.00307     0.00908
  
  S  H  27   0.00283    -0.00849    -0.00863    -0.00046     0.00209    -0.00365
  
  S  H  28   0.03201     0.01694    -0.01531     0.00913    -0.00067    -0.00011
  
  S  C  29  -0.00187     0.00695    -0.00103     0.00685    -0.00297     0.00137
 PX  C  29  -0.01223    -0.00147     0.00795    -0.00303    -0.01546    -0.00063
 PY  C  29   0.03644     0.02808    -0.00128     0.00532    -0.02556     0.00355
 PZ  C  29   0.24160     0.32224    -0.07928     0.06436    -0.35711    -0.14347
  
  S  C  30   0.01764    -0.00236    -0.01516    -0.00004     0.01760    -0.00281
 PX  C  30   0.03360    -0.01059    -0.03763     0.00706     0.03162    -0.01541
 PY  C  30  -0.01562    -0.03392    -0.01880    -0.00393     0.03033    -0.01167
 PZ  C  30  -0.22637     0.08196     0.31786    -0.05716    -0.34241     0.12094




    ROOT NO.   43          44          45          46          47          48

            -1.12384     0.11962     0.33856     1.24989     1.31065     1.84573
  
  
  S  C   1   0.00216     0.00625     0.00311    -0.00672    -0.01139     0.00461
 PX  C   1   0.00189     0.00530     0.00445    -0.00687    -0.00909     0.00381
 PY  C   1   0.00127     0.00136    -0.00196     0.00111     0.00049     0.00023
 PZ  C   1   0.17865     0.20093    -0.27612     0.34690    -0.18369    -0.08149
  
  S  C   2  -0.00065    -0.01951    -0.01282     0.02301     0.03248    -0.01946
 PX  C   2  -0.00289    -0.01106    -0.00650     0.01099     0.01491    -0.00824
 PY  C   2  -0.00761    -0.01360    -0.00111     0.00689     0.01887    -0.00803
 PZ  C   2  -0.22416     0.05701     0.34679    -0.35540    -0.11717     0.18016
  
  S  C   3   0.01327     0.03918     0.01339    -0.03861    -0.06561     0.04049
 PX  C   3   0.01239     0.02848    -0.00105     0.00664    -0.02680    -0.00885
 PY  C   3   0.01348     0.01760    -0.00462    -0.01149    -0.02299     0.02206
 PZ  C   3  -0.12690    -0.31329     0.00988     0.05884     0.39979    -0.20481
  
  S  C   4  -0.02171    -0.00199     0.00730     0.05274     0.01540    -0.05525
 PX  C   4   0.00243    -0.03073     0.00943    -0.01130     0.02077     0.00093
 PY  C   4   0.01310    -0.02446     0.01953    -0.03090    -0.01072     0.02019
 PZ  C   4  -0.16357     0.31257    -0.11795     0.36506    -0.11117    -0.17751
  
  S  C   5   0.01029    -0.00122    -0.00958    -0.01870     0.00299     0.02168
 PX  C   5   0.02394     0.00050    -0.03067     0.00461     0.01573     0.00323
 PY  C   5   0.00021     0.00273    -0.00145     0.00153    -0.00146    -0.00031
 PZ  C   5  -0.21304     0.03035     0.33799    -0.24314    -0.27949     0.17522
  
  S  C   6  -0.00427    -0.00040     0.00801     0.00358    -0.00642    -0.00511
 PX  C   6  -0.00863     0.00510     0.00795     0.00209    -0.00995     0.00008
 PY  C   6  -0.00510     0.00143     0.00603     0.00221    -0.00650    -0.00274
 PZ  C   6   0.19926    -0.25722    -0.16284    -0.03201     0.39032    -0.08270
  
  S  C   7   0.00530    -0.03073    -0.01826     0.01593     0.02713     0.01630
 PX  C   7  -0.04544     0.00519     0.02285    -0.00178     0.01523    -0.00196
 PY  C   7  -0.01933    -0.01251     0.00097     0.00426     0.01601     0.00844
 PZ  C   7   0.38213    -0.05625    -0.20863    -0.07878    -0.30156     0.30569
  
  S  C   8   0.03640     0.00264    -0.01738    -0.05497     0.00458     0.03573
 PX  C   8  -0.00970     0.01099     0.00737     0.01150     0.00012    -0.02991
 PY  C   8  -0.01712     0.00434     0.00501     0.01852     0.00008    -0.01808
 PZ  C   8   0.37580    -0.01521    -0.21024    -0.28413     0.04271     0.29428
  
  S  C   9  -0.01731    -0.01959    -0.00752     0.02996    -0.00811     0.03242
 PX  C   9   0.00649    -0.01948    -0.00780    -0.00951     0.00344     0.02868
 PY  C   9  -0.00070    -0.00493     0.02021     0.00538    -0.00612    -0.02476
 PZ  C   9   0.01487    -0.30682     0.30398     0.00830     0.04093    -0.27878
  
  S  C  10  -0.00320     0.04705     0.03172    -0.00839    -0.01136    -0.06967
 PX  C  10   0.01058    -0.00731    -0.00512     0.00285    -0.00587    -0.00521
 PY  C  10   0.00465    -0.00821    -0.00851    -0.00116     0.00659    -0.00119
 PZ  C  10  -0.01633     0.40746     0.18260     0.03453    -0.01880    -0.27795
  
  S  C  11  -0.00275    -0.02027    -0.01631     0.01336     0.01571     0.06460
 PX  C  11  -0.02688     0.01205     0.00133     0.00375     0.01553     0.00811
 PY  C  11   0.00557     0.00082     0.00732     0.00497    -0.00311     0.00233
 PZ  C  11  -0.36219    -0.05412    -0.20578     0.02822     0.26918     0.35933
  
  S  H  12   0.00738     0.00874     0.00370    -0.01120    -0.01021    -0.03541
  
  S  C  13   0.02478     0.01494     0.01014    -0.03991     0.01450    -0.04142
 PX  C  13  -0.00701     0.00747    -0.00624    -0.00168     0.00111    -0.00277
 PY  C  13  -0.00972    -0.00169    -0.00411     0.00979    -0.00169     0.00870
 PZ  C  13  -0.37229    -0.05646    -0.19174     0.25523    -0.08152     0.33068
  
  S  H  14  -0.00378     0.01365     0.00215    -0.00624    -0.01029    -0.00292
  
  S  H  15  -0.00397    -0.00484    -0.00180     0.00526     0.00896    -0.00352
  
  S  H  16  -0.00186     0.00936     0.00584    -0.01270    -0.01453     0.01286
  
  S  H  17  -0.00389     0.00252     0.00015     0.01119     0.00162    -0.01145
  
  S  H  18   0.00544     0.00175    -0.00909    -0.00019     0.00510     0.00306
  
  S  H  19  -0.01897     0.00036     0.00508     0.03249     0.00134    -0.02229
  
  S  H  20  -0.00742    -0.00596    -0.01053     0.01705    -0.00497     0.03320
  
  S  C  21   0.00574     0.00515     0.00048     0.00564     0.01076     0.02813
 PX  C  21   0.00733     0.00887     0.01657     0.00697     0.00324    -0.00652
 PY  C  21  -0.00409     0.00519    -0.00620    -0.00941     0.00365    -0.00420
 PZ  C  21   0.23015     0.08496     0.34877     0.33818     0.07262     0.22377
  
  S  C  22   0.01247    -0.01079     0.02384     0.02549    -0.01022    -0.00128
 PX  C  22  -0.01164     0.01020    -0.01679    -0.01628     0.00733    -0.00237
 PY  C  22   0.01178    -0.00589     0.01395     0.01522     0.00049     0.01299
 PZ  C  22  -0.20788     0.22338    -0.27668    -0.33874     0.19121    -0.09426
  
  S  C  23  -0.01836    -0.00995    -0.02371    -0.00745    -0.02273    -0.00873
 PX  C  23  -0.00829    -0.02136    -0.00779    -0.00250    -0.01822    -0.01084
 PY  C  23   0.01450     0.01203     0.01573     0.00672     0.01348     0.00665
 PZ  C  23  -0.18519    -0.33198    -0.14850     0.06991    -0.36734    -0.10863
  
  S  C  24   0.01990     0.01702     0.01924    -0.00943     0.02780    -0.00432
 PX  C  24   0.00271     0.00317     0.01008     0.01231     0.00927     0.01359
 PY  C  24  -0.02937    -0.01453    -0.03064    -0.00547    -0.02832    -0.01098
 PZ  C  24   0.22925     0.07719     0.33028     0.19157     0.26862     0.22714
  
  S  H  25  -0.00079    -0.00634    -0.00108    -0.00366    -0.00637    -0.01373
  
  S  H  26  -0.00681     0.00660    -0.01452    -0.01572     0.00836     0.00332
  
  S  H  27   0.01237     0.00644     0.01488     0.00344     0.01602     0.00659
  
  S  H  28  -0.00522    -0.01062    -0.00833     0.00118    -0.01396    -0.00005
  
  S  C  29  -0.00257     0.00907    -0.00094    -0.02460    -0.01021    -0.05600
 PX  C  29   0.00436    -0.01581    -0.00385     0.00400    -0.00964     0.00280
 PY  C  29   0.00620    -0.00598    -0.01241    -0.01530    -0.00316    -0.00550
 PZ  C  29   0.14823    -0.35338    -0.00503    -0.05802    -0.32644    -0.25816
  
  S  C  30  -0.02041    -0.02569     0.00383     0.04738    -0.01415     0.04314
 PX  C  30  -0.00013    -0.01562     0.00311     0.00390    -0.00227     0.00897
 PY  C  30  -0.00505    -0.01716     0.00384     0.00859    -0.01195    -0.00613
 PZ  C  30   0.12430     0.33399    -0.12911    -0.32833     0.07012    -0.23296




    ROOT NO.   49          50          51          52          53          54

             2.27534     2.49000     2.84350     3.11662     3.24013     3.41705
  
  
  S  C   1  -0.05695    -0.07040    -0.14429     0.02705    -0.16474    -0.12871
 PX  C   1  -0.01890    -0.01684    -0.01846     0.02208     0.00916    -0.06147
 PY  C   1  -0.00874    -0.01166    -0.02653    -0.01152    -0.03766     0.03596
 PZ  C   1   0.24843    -0.19466     0.01438    -0.25821     0.02169    -0.05650
  
  S  C   2   0.09295     0.10277     0.18694    -0.05939     0.14848     0.20004
 PX  C   2   0.02295     0.01787     0.01520    -0.01568    -0.02504     0.02173
 PY  C   2   0.03318     0.03968     0.05185    -0.01289     0.01838     0.04545
 PZ  C   2  -0.14575     0.15371     0.00672     0.25577    -0.01598     0.07512
  
  S  C   3  -0.15059    -0.18152    -0.26493     0.05265    -0.12353    -0.22141
 PX  C   3  -0.01949    -0.01742     0.03885     0.03751     0.11494    -0.08371
 PY  C   3  -0.01881    -0.02822    -0.03389    -0.03099    -0.02071     0.10978
 PZ  C   3  -0.02876    -0.05577    -0.01868    -0.28845     0.02460    -0.10006
  
  S  C   4   0.15443     0.18713     0.29016     0.08483     0.20307    -0.13307
 PX  C   4   0.02371     0.02518    -0.00011    -0.02648    -0.05958     0.03254
 PY  C   4   0.00174    -0.00723    -0.03765     0.03289    -0.03843    -0.16555
 PZ  C   4  -0.01699    -0.00060    -0.08845     0.29134    -0.08041     0.07699
  
  S  C   5  -0.10166    -0.12210    -0.23024    -0.06478    -0.22946     0.12907
 PX  C   5  -0.05082    -0.03766    -0.05835    -0.00495    -0.01667     0.04201
 PY  C   5   0.00195     0.00025     0.01021    -0.00417     0.02454     0.00512
 PZ  C   5   0.18765    -0.12214     0.05051    -0.27556     0.03776    -0.04556
  
  S  C   6   0.06710     0.07578     0.17224     0.02575     0.21950    -0.06031
 PX  C   6   0.02374     0.01489     0.03274    -0.00530     0.02404     0.01014
 PY  C   6   0.01451     0.01008     0.01604     0.02179     0.00540    -0.07969
 PZ  C   6  -0.26913     0.18454    -0.03433     0.27139    -0.02579     0.04599
  
  S  C   7   0.17983     0.19912     0.15050    -0.04320    -0.14677     0.29287
 PX  C   7   0.00013     0.01376    -0.07582    -0.00025    -0.12563    -0.01014
 PY  C   7   0.04315     0.04309    -0.02490    -0.00296    -0.09637     0.00022
 PZ  C   7   0.13932    -0.09631     0.00043     0.13361    -0.02871    -0.00329
  
  S  C   8  -0.16091    -0.17577    -0.16143    -0.12779     0.02013     0.26225
 PX  C   8  -0.01216    -0.02858     0.05638    -0.00506     0.13202     0.03510
 PY  C   8   0.02739     0.02354     0.06078     0.01027     0.05871     0.00115
 PZ  C   8  -0.14296     0.13061     0.09487    -0.10719     0.08041    -0.05823
  
  S  C   9   0.18225     0.22562     0.03865     0.11010    -0.28441    -0.23953
 PX  C   9   0.01242     0.01818    -0.07360    -0.03108    -0.08810     0.06431
 PY  C   9  -0.03425    -0.02556    -0.04129     0.01707     0.09799    -0.12644
 PZ  C   9   0.30772    -0.19293    -0.05354    -0.02081    -0.09312    -0.03656
  
  S  C  10  -0.22212    -0.21801    -0.01410     0.00439     0.35601    -0.15572
 PX  C  10   0.01591     0.01061     0.08481     0.03318    -0.03785    -0.06201
 PY  C  10  -0.01047    -0.03409     0.03076    -0.04800     0.06792     0.16523
 PZ  C  10  -0.23712     0.24031    -0.00276     0.01634     0.00540     0.08509
  
  S  C  11   0.16379     0.19090    -0.13709    -0.05210    -0.15428     0.19425
 PX  C  11  -0.03499    -0.02366    -0.06989    -0.02267     0.12194    -0.02418
 PY  C  11   0.01648     0.03973    -0.07551    -0.01188     0.04768     0.01004
 PZ  C  11   0.09517    -0.11465     0.05089    -0.13864    -0.04981    -0.09034
  
  S  H  12  -0.08287    -0.09954     0.07574     0.01898     0.09436    -0.07194
  
  S  C  13  -0.11741    -0.21404     0.10364    -0.07920     0.10320     0.28613
 PX  C  13   0.01014    -0.00963     0.09155     0.02979    -0.09935    -0.00632
 PY  C  13   0.03657     0.03784     0.02911     0.02571    -0.06846    -0.02598
 PZ  C  13  -0.17419     0.02159     0.01437     0.14215     0.10600     0.09330
  
  S  H  14  -0.10341    -0.12383    -0.10636     0.01339     0.09455    -0.16708
  
  S  H  15   0.03613     0.04433     0.08720    -0.02045     0.09459     0.09589
  
  S  H  16  -0.04953    -0.05332    -0.11308     0.02950    -0.10653    -0.09208
  
  S  H  17   0.05229     0.06792     0.13384     0.03056     0.13844    -0.04052
  
  S  H  18  -0.04481    -0.04875    -0.11127    -0.01835    -0.14329     0.05664
  
  S  H  19   0.09249     0.09705     0.09684     0.07075    -0.02487    -0.12837
  
  S  H  20   0.06793     0.12835    -0.07157     0.03949    -0.08523    -0.15327
  
  S  C  21   0.09219     0.15761    -0.25955    -0.09556     0.14550     0.14846
 PX  C  21  -0.04205    -0.05072     0.05519     0.00191     0.02227    -0.02921
 PY  C  21   0.01081     0.00501    -0.03130    -0.00566     0.04800     0.00722
 PZ  C  21  -0.19822     0.12142     0.07252    -0.22531    -0.07096    -0.06607
  
  S  C  22  -0.07926    -0.10390     0.22783     0.07615    -0.21588    -0.10410
 PX  C  22   0.02208     0.01737    -0.03030     0.00006     0.01189    -0.01016
 PY  C  22   0.00752     0.01818    -0.01391    -0.01610    -0.02802     0.06718
 PZ  C  22   0.25627    -0.17758    -0.04558     0.21536     0.04205     0.03597
  
  S  C  23   0.03293     0.11504    -0.17869    -0.05976     0.19850    -0.08531
 PX  C  23  -0.01667    -0.00940     0.00555    -0.02557     0.00759     0.06831
 PY  C  23  -0.00961    -0.02735     0.04960     0.02494    -0.04588    -0.04327
 PZ  C  23  -0.26324     0.18191     0.07687    -0.21101    -0.08786    -0.03763
  
  S  C  24  -0.04474    -0.14679     0.19362     0.02525    -0.16322     0.17397
 PX  C  24   0.01578     0.00590     0.00314     0.03089    -0.03530    -0.02559
 PY  C  24   0.00404     0.05456    -0.03796    -0.00995     0.00566    -0.04163
 PZ  C  24   0.18903    -0.16246    -0.07424     0.24067     0.10584     0.04622
  
  S  H  25  -0.04499    -0.08823     0.15128     0.05518    -0.09728    -0.06410
  
  S  H  26   0.05594     0.06710    -0.15318    -0.04986     0.14592     0.08563
  
  S  H  27  -0.01550    -0.07142     0.10064     0.03600    -0.11196     0.06908
  
  S  H  28   0.02692     0.07783    -0.12168    -0.02246     0.10788    -0.07552
  
  S  C  29  -0.13456    -0.21998     0.29743     0.07576    -0.07579    -0.11994
 PX  C  29   0.02366     0.02109     0.01350     0.03366    -0.05397    -0.04628
 PY  C  29   0.00963    -0.01895     0.05993    -0.01624    -0.08429     0.12948
 PZ  C  29   0.05973    -0.04440    -0.08030     0.27895     0.10103     0.11225
  
  S  C  30   0.09683     0.20877    -0.25220     0.01425     0.11180    -0.19489
 PX  C  30  -0.00933    -0.00655    -0.06376    -0.04028     0.07768     0.08792
 PY  C  30  -0.03004    -0.03901     0.04238     0.02703     0.02476    -0.07626
 PZ  C  30  -0.02038     0.12240     0.03205    -0.28944    -0.11707    -0.12815




    ROOT NO.   55          56          57          58          59          60

             3.51165     3.60077     3.73594     3.94609     4.15041     4.26310
  
  
  S  C   1   0.00459     0.15466     0.40450     0.13867    -0.11435    -0.06723
 PX  C   1   0.01549    -0.02509    -0.07380     0.08103    -0.12466    -0.05479
 PY  C   1  -0.00950     0.02562     0.05050    -0.05502     0.04147     0.03064
 PZ  C   1  -0.12773     0.06056    -0.01698     0.02933    -0.00344    -0.00601
  
  S  C   2  -0.03216    -0.06159    -0.08311    -0.24345     0.32531     0.14847
 PX  C   2  -0.01167     0.06021     0.18811    -0.00811     0.00475    -0.00007
 PY  C   2  -0.00490     0.01632     0.08366    -0.01120    -0.03652    -0.01651
 PZ  C   2   0.15085    -0.07341     0.03051    -0.05381     0.02077     0.01680
  
  S  C   3   0.02881    -0.04421    -0.27263     0.17713    -0.03156    -0.05828
 PX  C   3   0.02272    -0.05440    -0.00156     0.02714     0.17506     0.03393
 PY  C   3  -0.01511    -0.02746    -0.11520    -0.13622     0.08727     0.06349
 PZ  C   3  -0.23983     0.11312    -0.08154     0.08949     0.00726    -0.02165
  
  S  C   4   0.04728     0.01570     0.29035     0.13080     0.00416    -0.02931
 PX  C   4  -0.03160     0.06878     0.10040    -0.08679     0.17400     0.06966
 PY  C   4   0.00862     0.01653    -0.05487     0.12668     0.08436    -0.02263
 PZ  C   4   0.24324    -0.12644    -0.00011    -0.06975     0.00591     0.01648
  
  S  C   5  -0.05103     0.09205     0.05435    -0.21058     0.31317     0.13573
 PX  C   5   0.00483    -0.05062    -0.17638    -0.00697    -0.05303    -0.02590
 PY  C   5  -0.00186    -0.03181    -0.10033    -0.01679     0.05250     0.01902
 PZ  C   5  -0.16299     0.08089    -0.01139     0.02569     0.00399    -0.00422
  
  S  C   6   0.02907    -0.16885    -0.39038     0.10265    -0.10812    -0.06326
 PX  C   6  -0.00177    -0.00641    -0.00421    -0.01345    -0.01482     0.00448
 PY  C   6   0.01286     0.02974     0.12138     0.11044    -0.13505    -0.06600
 PZ  C   6   0.13587    -0.06892    -0.00023    -0.01958    -0.00545     0.00137
  
  S  C   7  -0.01564     0.11343     0.09230    -0.16485    -0.28578    -0.01212
 PX  C   7  -0.00637     0.02644    -0.11491     0.06532    -0.06304    -0.04872
 PY  C   7   0.00342     0.01923    -0.08315     0.06636     0.06953    -0.02540
 PZ  C   7   0.20850    -0.10591     0.02772    -0.04513     0.00233     0.01579
  
  S  C   8  -0.05516    -0.09247    -0.11038    -0.17319    -0.30744    -0.01261
 PX  C   8   0.02982    -0.05657     0.12998     0.04614     0.02254    -0.03161
 PY  C   8   0.01311    -0.01091     0.05960     0.00692    -0.08089    -0.01479
 PZ  C   8  -0.20618     0.12598     0.01179     0.07569     0.04621    -0.00952
  
  S  C   9  -0.01748     0.16712    -0.17801     0.03780     0.06024     0.10605
 PX  C   9  -0.04030    -0.00495    -0.08636    -0.08989    -0.13156     0.01948
 PY  C   9  -0.03707    -0.05148     0.04495    -0.07454    -0.01941     0.13241
 PZ  C   9   0.26693    -0.15625     0.02099    -0.06734    -0.00991     0.01611
  
  S  C  10  -0.01293    -0.11549     0.17317    -0.05123     0.02137     0.11354
 PX  C  10   0.00444     0.09219    -0.01409    -0.09835    -0.08787     0.13923
 PY  C  10   0.01067    -0.03730     0.09106    -0.06861    -0.10258    -0.05876
 PZ  C  10  -0.26586     0.15863    -0.06341     0.06299     0.00096    -0.03532
  
  S  C  11  -0.03355    -0.12125    -0.03880     0.18368     0.15386    -0.31741
 PX  C  11  -0.01495    -0.10590     0.07938     0.03925     0.02197    -0.00609
 PY  C  11  -0.03637    -0.07145     0.03790     0.01418    -0.02410     0.07531
 PZ  C  11   0.21400    -0.10164     0.03240    -0.04842    -0.01564     0.03444
  
  S  H  12   0.02278     0.07688     0.03119    -0.11731    -0.14899     0.27971
  
  S  C  13   0.15655     0.02866     0.06844     0.16558     0.12555    -0.28644
 PX  C  13   0.04855     0.11713    -0.07734     0.07536     0.00848     0.07210
 PY  C  13   0.01845     0.05172    -0.04288     0.05502     0.03540    -0.03776
 PZ  C  13  -0.19095     0.12477    -0.01331     0.05818     0.01402    -0.02807
  
  S  H  14   0.01134    -0.09452    -0.08337     0.12506     0.29445    -0.00309
  
  S  H  15  -0.00406    -0.09359    -0.25060    -0.09542     0.02944     0.03555
  
  S  H  16   0.01844     0.04276     0.05068     0.14613    -0.26458    -0.11087
  
  S  H  17   0.03064    -0.06258    -0.03539     0.12062    -0.27241    -0.10495
  
  S  H  18  -0.01836     0.10709     0.25016    -0.07938     0.03856     0.03890
  
  S  H  19   0.04462     0.06384     0.08769     0.12415     0.29883    -0.00489
  
  S  H  20  -0.11720    -0.03197    -0.05565    -0.11198    -0.12980     0.26598
  
  S  C  21   0.07207    -0.04179     0.04010     0.24989    -0.02974     0.30031
 PX  C  21   0.10083     0.16088    -0.05119    -0.00476    -0.00785     0.06468
 PY  C  21   0.06524     0.10298    -0.02842    -0.01003     0.00317    -0.02369
 PZ  C  21   0.14234    -0.05929     0.01201    -0.02134    -0.00050    -0.00602
  
  S  C  22  -0.25414    -0.30248     0.07162    -0.12413     0.00342    -0.12319
 PX  C  22  -0.01395    -0.02129     0.00972    -0.01915    -0.01032     0.00986
 PY  C  22  -0.04308    -0.11236     0.03406     0.13145    -0.00522     0.13309
 PZ  C  22  -0.13610     0.01376    -0.00056    -0.00544     0.00118    -0.01613
  
  S  C  23   0.21423     0.30969    -0.07399    -0.16899    -0.00997    -0.11166
 PX  C  23   0.06309     0.05334    -0.01886     0.10927    -0.01011     0.12947
 PY  C  23  -0.06410    -0.06460     0.01537    -0.06892    -0.00358    -0.05546
 PZ  C  23   0.08708    -0.08577     0.01799     0.00998     0.00217     0.00855
  
  S  C  24  -0.02832    -0.07283    -0.00996     0.30612    -0.01893     0.31966
 PX  C  24  -0.11019    -0.13752     0.04296    -0.00748     0.00351    -0.00571
 PY  C  24  -0.04766    -0.08657     0.03320    -0.00168    -0.00409     0.05217
 PZ  C  24  -0.12801     0.09921    -0.01792    -0.01604    -0.00093    -0.02303
  
  S  H  25  -0.04040     0.03052    -0.03074    -0.15046     0.03746    -0.26021
  
  S  H  26   0.17832     0.21687    -0.05351     0.09511     0.01038     0.05120
  
  S  H  27  -0.12030    -0.17456     0.04200     0.11553     0.01779     0.03888
  
  S  H  28   0.02772     0.04671     0.00922    -0.18661     0.02696    -0.26538
  
  S  C  29   0.12171     0.30554    -0.11530    -0.13830    -0.03025     0.01596
 PX  C  29  -0.08043    -0.05437     0.00159    -0.10672     0.02452    -0.17172
 PY  C  29   0.05936     0.05372    -0.04654     0.13472     0.06159    -0.08475
 PZ  C  29  -0.22825     0.11561    -0.02662     0.04289     0.00420    -0.00324
  
  S  C  30  -0.19083    -0.22964     0.09980    -0.20791    -0.03599    -0.03476
 PX  C  30   0.02728    -0.03056     0.04070     0.01924     0.04807    -0.16356
 PY  C  30   0.04518     0.13764    -0.04113    -0.14180    -0.00801    -0.09382
 PZ  C  30   0.20024    -0.15835     0.03460    -0.05661    -0.00296    -0.00099




    ROOT NO.   61          62          63          64          65          66

             5.16443     5.45585     5.48478     5.70411     6.16864     6.35278
  
  
  S  C   1  -0.09459    -0.17727    -0.23621     0.11357    -0.07889     0.04819
 PX  C   1   0.11888     0.00328     0.10954    -0.13299     0.13376    -0.08113
 PY  C   1  -0.01965     0.21182     0.19222    -0.04602     0.03788    -0.02900
 PZ  C   1   0.00617     0.00031     0.00410    -0.00378     0.00187    -0.00048
  
  S  C   2  -0.16265     0.01640    -0.11762     0.15749    -0.15027     0.09623
 PX  C   2  -0.08932    -0.09750    -0.15455     0.08906    -0.06317     0.04280
 PY  C   2   0.01323     0.00867     0.05398    -0.09116     0.17368    -0.13872
 PZ  C   2  -0.01351    -0.00290    -0.01099     0.00893    -0.00447     0.00150
  
  S  C   3   0.09113     0.03098     0.03879     0.02511    -0.14514     0.12419
 PX  C   3  -0.16504     0.06054    -0.04521     0.06298     0.05254    -0.08510
 PY  C   3  -0.03124    -0.00339    -0.05156     0.09076    -0.16692     0.15619
 PZ  C   3   0.00781     0.01056     0.00342     0.01138    -0.02831     0.02110
  
  S  C   4  -0.07239     0.00523    -0.00062    -0.04681     0.16565    -0.16540
 PX  C   4   0.11428    -0.07299     0.02782    -0.09219     0.09480    -0.06318
 PY  C   4   0.12832     0.03276     0.07942    -0.02301    -0.13290     0.13510
 PZ  C   4   0.01335    -0.01272    -0.00431    -0.00047    -0.01225     0.01399
  
  S  C   5   0.16808    -0.14129     0.00186    -0.11746     0.12041    -0.07753
 PX  C   5   0.02022    -0.00229    -0.02037     0.05139    -0.14308     0.14023
 PY  C   5   0.12117    -0.23334    -0.11024    -0.08345     0.14903    -0.12205
 PZ  C   5   0.00629     0.00393     0.00638    -0.00226    -0.00563     0.00758
  
  S  C   6   0.13049    -0.26335    -0.15647    -0.03717     0.03800    -0.01541
 PX  C   6  -0.07712     0.25046     0.17070     0.02020    -0.04159     0.02149
 PY  C   6  -0.10846    -0.01678    -0.10766     0.11107    -0.10539     0.06803
 PZ  C   6  -0.00191    -0.00054    -0.00209     0.00205    -0.00142     0.00032
  
  S  C   7   0.20578    -0.07839     0.04054    -0.05779    -0.06376     0.09258
 PX  C   7   0.09241    -0.02338    -0.00506     0.01762    -0.11466     0.10115
 PY  C   7  -0.09312     0.07593    -0.05764     0.10928     0.05095    -0.23103
 PZ  C   7  -0.00370     0.00182    -0.00347     0.00726    -0.00339    -0.00345
  
  S  C   8  -0.22365     0.00347    -0.10237     0.07110     0.07624    -0.09787
 PX  C   8   0.03287    -0.03729     0.03001    -0.11071    -0.00402     0.10487
 PY  C   8  -0.11704    -0.01371    -0.07678     0.04818     0.15662    -0.24283
 PZ  C   8   0.02966     0.00037     0.01467    -0.01318    -0.00503     0.00710
  
  S  C   9   0.00236     0.05987    -0.01681     0.14254    -0.01327    -0.12378
 PX  C   9  -0.15457     0.01476    -0.06560     0.04738     0.05418    -0.08239
 PY  C   9  -0.07653    -0.04839     0.04173    -0.13003     0.05956     0.16918
 PZ  C   9  -0.00816    -0.00081    -0.00191     0.00498     0.00001    -0.00444
  
  S  C  10   0.00500    -0.05140     0.06899    -0.12445     0.03164     0.14261
 PX  C  10   0.14502     0.01510     0.01870     0.10995    -0.07858    -0.09382
[...]
  S   H   18   -0.0553    0.0294   -0.0503   -0.0296    0.0795    0.0022    0.2919   -0.0272
  S   H   19   -0.1466    0.2433    0.2860    0.0977   -0.0681   -0.0053    0.0683   -0.2042
  S   H   20    0.1666    0.2167    0.2510   -0.1510    0.1029    0.0437   -0.0217    0.1890
  S   C   21    0.1327    0.0736   -0.0166    0.0210   -0.0003    0.0652    0.0005   -0.0224
  Px  C   21    0.1335    0.1063   -0.0824    0.3297    0.0634   -0.0834    0.0011   -0.0224
  Py  C   21   -0.1228   -0.0840    0.0299   -0.1044   -0.0159    0.3231    0.0016   -0.1150
  Pz  C   21   -0.0137   -0.0092    0.0044   -0.0159   -0.0027    0.0035   -0.0001    0.0012
  S   C   22    0.0343    0.0151    0.0192   -0.0523   -0.0081   -0.1239   -0.0008    0.0462
  Px  C   22    0.0527    0.0329    0.0278   -0.0610   -0.0021    0.5079    0.0037   -0.1410
  Py  C   22    0.1103    0.0577   -0.0178    0.0650    0.0134   -0.0221    0.0005   -0.0307
  Pz  C   22    0.0049    0.0019    0.0000   -0.0014   -0.0006   -0.0395   -0.0003    0.0109
  S   C   23   -0.0836   -0.0374    0.0232   -0.0597   -0.0077    0.0758    0.0003    0.0095
  Px  C   23   -0.1299   -0.0612   -0.0052    0.0317    0.0124   -0.1730   -0.0032   -0.0783
  Py  C   23   -0.0362   -0.0179    0.0276   -0.0689   -0.0056   -0.4576   -0.0038    0.0283
  Pz  C   23    0.0109    0.0048   -0.0005   -0.0015   -0.0009   -0.0128    0.0000    0.0070
  S   C   24   -0.1468   -0.0703   -0.0224    0.0169   -0.0037   -0.0540   -0.0002   -0.0517
  Px  C   24    0.0825    0.0424   -0.0130    0.0731    0.0198   -0.1620   -0.0019   -0.0773
  Py  C   24   -0.1923   -0.1198   -0.1145    0.3173    0.0328    0.2027   -0.0029    0.1780
  Pz  C   24   -0.0081   -0.0060   -0.0066    0.0261    0.0039    0.0225   -0.0002    0.0213
  S   H   25   -0.2008   -0.1331    0.0634   -0.2233   -0.0381    0.1962    0.0003   -0.0509
  S   H   26   -0.0625   -0.0378   -0.0244    0.0454    0.0002   -0.2994   -0.0023    0.0817
  S   H   27    0.1306    0.0606   -0.0213    0.0386   -0.0015    0.3120    0.0036    0.0071
  S   H   28    0.2397    0.1310    0.0867   -0.2028   -0.0137   -0.1543    0.0010   -0.1159
  S   C   29    0.1480    0.1181   -0.0430    0.2821    0.0721    0.0135   -0.0007   -0.0200
  Px  C   29   -0.1046   -0.0594    0.0067    0.0922    0.0337   -0.0983    0.0014   -0.0133
  Py  C   29    0.1544    0.1295    0.0195   -0.1817   -0.0452   -0.0501   -0.0014   -0.0245
  Pz  C   29   -0.0004   -0.0010   -0.0005    0.0008   -0.0012    0.0029   -0.0001    0.0025
  S   C   30   -0.1535   -0.1057   -0.0714    0.2938    0.0536    0.0036    0.0004   -0.0008
  Px  C   30   -0.0721   -0.0831   -0.0022   -0.0824   -0.0385    0.0721   -0.0021    0.1968
  Py  C   30    0.1691    0.1208    0.0178    0.1457    0.0625    0.0633   -0.0059    0.0717
  Pz  C   30   -0.0087   -0.0063   -0.0116    0.0287    0.0019    0.0063   -0.0003    0.0115


   Root No.      73        74        75        76        77        78        79        80

                73 ????   25 a      24 b      25 b      26 a      26 b      27 b      27 a   

                 9.355     9.520    10.136    10.649    11.047    11.421    11.696    12.146
  
  S   C    1    0.0019    0.0590    0.0348   -0.0636   -0.0421    0.0252    0.0137    0.0028
  Px  C    1   -0.0340    0.1916   -0.0694   -0.2048    0.1433   -0.1569   -0.0205    0.1637
  Py  C    1    0.0575    0.0690    0.1883   -0.0426   -0.2278    0.1788    0.0530   -0.1072
  Pz  C    1    0.0002   -0.0010   -0.0011    0.0000    0.0018   -0.0017   -0.0000    0.0013
  S   C    2    0.0353   -0.0704    0.0678    0.0324   -0.0877    0.0620    0.0415    0.0025
  Px  C    2   -0.0285    0.1965   -0.0184   -0.2330    0.0536   -0.0933    0.0275    0.1822
  Py  C    2    0.1588   -0.1953    0.2147   -0.0404   -0.2091    0.1026    0.1410    0.1271
  Pz  C    2   -0.0009    0.0019    0.0008   -0.0033   -0.0024    0.0015    0.0020    0.0034
  S   C    3   -0.0084   -0.0322    0.0037    0.0599   -0.0237    0.0238    0.0098   -0.0064
  Px  C    3    0.1918   -0.1733    0.2712   -0.0238   -0.0665   -0.0034   -0.1817   -0.1737
  Py  C    3    0.0584   -0.0194    0.1108   -0.1212   -0.2235    0.1020    0.3139    0.3497
  Pz  C    3    0.0140   -0.0169    0.0228   -0.0007   -0.0205    0.0088    0.0101    0.0108
  S   C    4    0.0198   -0.0475    0.0164    0.0721    0.0332   -0.0308   -0.0190    0.0064
  Px  C    4   -0.0079   -0.1156   -0.1947   -0.0840    0.1932   -0.0796   -0.1418   -0.1823
  Py  C    4   -0.0396   -0.0846   -0.1174   -0.0158   -0.0772    0.0573    0.3263    0.3422
  Pz  C    4   -0.0052   -0.0113   -0.0230   -0.0126    0.0022    0.0002    0.0256    0.0233
  S   C    5    0.0274   -0.0999   -0.0399    0.0460    0.0825   -0.0606   -0.0364    0.0049
  Px  C    5   -0.0210   -0.0341   -0.1469   -0.1482    0.1072   -0.0226   -0.1094   -0.1971
  Py  C    5   -0.0929    0.2900    0.0304   -0.1831   -0.1353    0.1182    0.0419   -0.0917
  Pz  C    5   -0.0021   -0.0030   -0.0135   -0.0100    0.0112   -0.0033   -0.0095   -0.0157
  S   C    6   -0.0414    0.0701   -0.0648   -0.0777    0.0494   -0.0316   -0.0171   -0.0058
  Px  C    6   -0.1433    0.2174   -0.1752   -0.1855    0.1076   -0.0631   -0.0332   -0.0111
  Py  C    6   -0.0137    0.1352    0.1090   -0.1279   -0.2347    0.2183    0.0421   -0.1984
  Pz  C    6   -0.0049    0.0098   -0.0036   -0.0089   -0.0012    0.0019    0.0009   -0.0020
  S   C    7   -0.1109    0.0553   -0.0868    0.0681   -0.0302    0.0634    0.0424    0.0241
  Px  C    7    0.1073   -0.1488    0.1793    0.0536   -0.0797    0.0644   -0.1640   -0.1782
  Py  C    7   -0.3080    0.1153   -0.1463    0.2007   -0.1040    0.1847    0.0061   -0.0166
  Pz  C    7   -0.0005   -0.0122    0.0177    0.0135   -0.0138    0.0133   -0.0197   -0.0209
  S   C    8    0.0288    0.0143    0.0707    0.0884    0.0399   -0.0633   -0.0361   -0.0133
  Px  C    8    0.0506   -0.0840    0.0351    0.2149    0.1381   -0.1928    0.1063    0.1473
  Py  C    8   -0.0349   -0.1152   -0.1608   -0.1017   -0.0069    0.0452    0.1342    0.1405
  Pz  C    8   -0.0029   -0.0094   -0.0122   -0.0039   -0.0005    0.0033    0.0125    0.0100
  S   C    9    0.0056    0.0341    0.0204   -0.0040   -0.0040    0.0060   -0.0294   -0.0121
  Px  C    9    0.0894   -0.0725    0.0881    0.2643    0.1840   -0.2327    0.0581    0.1173
  Py  C    9    0.0455   -0.0065   -0.1687    0.1550    0.0898    0.4151   -0.1676    0.0111
  Pz  C    9   -0.0021    0.0030    0.0075   -0.0128   -0.0066   -0.0169    0.0069   -0.0028
  S   C   10   -0.0040    0.0311   -0.0432    0.0111    0.0003    0.0114    0.0232    0.0013
  Px  C   10   -0.2811    0.1087    0.0688    0.2404   -0.1689   -0.1992    0.1250   -0.0500
  Py  C   10   -0.1739    0.0101   -0.1582    0.1404   -0.1026    0.4207   -0.1233   -0.0732
  Pz  C   10   -0.0101   -0.0013    0.0022    0.0065   -0.0066    0.0063   -0.0016   -0.0008
  S   C   11    0.1264   -0.0130   -0.0786   -0.0820    0.0441    0.0604    0.0240   -0.0064
  Px  C   11   -0.1912    0.1040    0.0006    0.2043   -0.1152   -0.1545    0.1635   -0.0585
  Py  C   11    0.3187    0.0269   -0.1970   -0.1090    0.0413    0.0701    0.1473   -0.0784
  Pz  C   11    0.0140   -0.0066   -0.0007   -0.0104    0.0066    0.0072   -0.0079    0.0017
  S   H   12    0.2121   -0.0185   -0.0981   -0.1001    0.0572    0.0891    0.0332   -0.0276
  S   C   13   -0.0169    0.0615    0.0834   -0.0838   -0.0486   -0.0720   -0.0431    0.0033
  Px  C   13    0.0267    0.1814    0.1502    0.0216    0.0156    0.0303   -0.2459    0.1047
  Py  C   13    0.0497   -0.1105   -0.1456    0.2437    0.1241    0.1938   -0.0357    0.0224
  Pz  C   13   -0.0036   -0.0013    0.0026   -0.0102   -0.0062   -0.0088    0.0038   -0.0034
  S   H   14   -0.1747    0.0955   -0.1218    0.0686   -0.0278    0.0794    0.0466    0.0420
  S   H   15    0.0235    0.0948    0.0789   -0.0872   -0.0744    0.0433    0.0239   -0.0012
  S   H   16    0.0928   -0.1544    0.1184    0.0363   -0.1266    0.0809    0.0703    0.0222
  S   H   17    0.0384   -0.1497   -0.0587    0.0461    0.1014   -0.0687   -0.0563   -0.0131
  S   H   18   -0.0857    0.1301   -0.1020   -0.1080    0.0618   -0.0362   -0.0202   -0.0062
  S   H   19    0.0315    0.0371    0.0936    0.0924    0.0385   -0.0831   -0.0405   -0.0346
  S   H   20   -0.0209    0.1017    0.1124   -0.1043   -0.0589   -0.0945   -0.0481    0.0213
  S   C   21   -0.0767   -0.0563    0.0696   -0.0282    0.0934    0.0525    0.0259    0.0057
  Px  C   21    0.1550   -0.0223   -0.1579   -0.1693   -0.1078    0.0077   -0.1723    0.1878
  Py  C   21   -0.2480   -0.2507    0.1262   -0.1831    0.1911    0.1370   -0.0150    0.1150
  Pz  C   21   -0.0057    0.0011    0.0058    0.0065    0.0031   -0.0014    0.0076   -0.0093
  S   C   22    0.0251    0.0795    0.0383    0.0699    0.0337    0.0154    0.0138   -0.0017
  Px  C   22   -0.0387   -0.2095   -0.1274   -0.1452   -0.1023   -0.0503   -0.0240   -0.0142
  Py  C   22   -0.1376   -0.1124    0.1703   -0.1578    0.2894    0.2293   -0.0575    0.2277
  Pz  C   22   -0.0018    0.0143    0.0180    0.0078    0.0207    0.0135    0.0003    0.0097
  S   C   23    0.0636    0.0480   -0.0465    0.0663   -0.0413   -0.0191   -0.0056    0.0115
  Px  C   23   -0.1815   -0.2157   -0.0482   -0.2002   -0.1810   -0.1689    0.0415   -0.2231
  Py  C   23   -0.1924   -0.0531    0.2113   -0.0893    0.2329    0.1528   -0.0122    0.1082
  Pz  C   23    0.0014    0.0111    0.0152    0.0065    0.0241    0.0193   -0.0057    0.0220
  S   C   24   -0.0605   -0.0928   -0.0593   -0.0289   -0.0965   -0.0558   -0.0285   -0.0078
  Px  C   24   -0.1886   -0.2145    0.0072   -0.2270   -0.0806   -0.1066    0.0700   -0.2245
  Py  C   24    0.1394    0.2323    0.1758   -0.0539    0.1995    0.0684    0.1338   -0.1231
  Pz  C   24    0.0194    0.0316    0.0215    0.0017    0.0278    0.0124    0.0141   -0.0082
  S   H   25   -0.1745   -0.1179    0.1103   -0.0378    0.1304    0.0678    0.0499   -0.0016
  S   H   26    0.0173    0.1199    0.0754    0.0823    0.0599    0.0288    0.0163    0.0063
  S   H   27    0.1630    0.0967   -0.0991    0.1106   -0.0689   -0.0294   -0.0090    0.0107
  S   H   28   -0.1274   -0.1823   -0.0892   -0.0365   -0.1305   -0.0700   -0.0530   -0.0003
  S   C   29    0.0058   -0.0458   -0.0006   -0.0642    0.0340    0.0263   -0.0021    0.0102
  Px  C   29    0.2101    0.0163   -0.2277   -0.1249   -0.1989   -0.0384   -0.1913    0.1803
  Py  C   29    0.1778    0.0422   -0.1566    0.0008    0.1341    0.0774    0.3817   -0.2173
  Pz  C   29   -0.0107    0.0010    0.0114    0.0052    0.0022   -0.0013   -0.0051    0.0023
  S   C   30   -0.0160   -0.0313    0.0057   -0.0641   -0.0145   -0.0172    0.0133   -0.0278
  Px  C   30    0.0142    0.2226    0.2413   -0.0588   -0.0098   -0.0432   -0.2639    0.0911
  Py  C   30    0.0497    0.0608    0.1111   -0.0988    0.2579    0.0813    0.3546   -0.2853
  Pz  C   30    0.0011    0.0090    0.0147   -0.0133    0.0092    0.0009    0.0057   -0.0116


   Root No.      81        82        83        84

                81 ????   82 ????   28 a      28 b   

                12.567    12.709    13.186    14.479
  
  S   C    1    0.0504    0.0374    0.0069    0.0378
  Px  C    1    0.3258   -0.0943    0.1837    0.0934
  Py  C    1   -0.0970    0.1664   -0.1141    0.0300
  Pz  C    1    0.0010   -0.0008    0.0004    0.0002
  S   C    2   -0.0120    0.0250   -0.0173    0.0244
  Px  C    2    0.3620   -0.0592    0.1810    0.1375
  Py  C    2    0.1623    0.0298    0.0375    0.1160
  Pz  C    2    0.0076    0.0008    0.0027    0.0052
  S   C    3   -0.0181   -0.0050    0.0068    0.0201
  Px  C    3    0.2675    0.0817    0.2536    0.2130
  Py  C    3    0.1941   -0.0455   -0.0165    0.0951
  Pz  C    3    0.0259    0.0007    0.0159    0.0207
  S   C    4   -0.0077   -0.0234    0.0010    0.0196
  Px  C    4    0.0778    0.3203   -0.1181    0.2244
  Py  C    4    0.0725    0.0625   -0.2088    0.1370
  Pz  C    4    0.0117    0.0279   -0.0287    0.0261
  S   C    5    0.0287   -0.0154    0.0204    0.0240
  Px  C    5    0.0636    0.3485   -0.1263    0.1969
  Py  C    5   -0.0321    0.2134   -0.1237    0.0650
  Pz  C    5    0.0038    0.0271   -0.0110    0.0153
  S   C    6    0.0560    0.0519   -0.0042    0.0441
  Px  C    6    0.1139    0.1055   -0.0087    0.0849
  Py  C    6   -0.1278    0.3314   -0.2096    0.0814
  Pz  C    6    0.0026    0.0085   -0.0036    0.0044
  S   C    7   -0.0504   -0.0385   -0.0086    0.0083
  Px  C    7    0.2291    0.0543    0.2584    0.2352
  Py  C    7    0.0315   -0.0713    0.1075    0.1315
  Pz  C    7    0.0269    0.0031    0.0325    0.0289
  S   C    8   -0.0425   -0.0382    0.0041    0.0167
  Px  C    8   -0.0149    0.1407   -0.2165    0.2774
  Py  C    8    0.0974    0.1338   -0.1470    0.1343
  Pz  C    8    0.0084    0.0140   -0.0110    0.0133
  S   C    9   -0.0279   -0.0580    0.0028   -0.0030
  Px  C    9   -0.0547    0.0785   -0.2066    0.2802
  Py  C    9    0.1185   -0.1873   -0.1391    0.1505
  Pz  C    9   -0.0045    0.0085    0.0109   -0.0112
  S   C   10   -0.0622   -0.0233    0.0083    0.0112
  Px  C   10   -0.1080    0.0712    0.2603    0.2632
  Py  C   10    0.1673   -0.1227    0.1101    0.1352
  Pz  C   10    0.0106    0.0012    0.0058    0.0073
  S   C   11   -0.0455   -0.0359   -0.0003   -0.0108
  Px  C   11   -0.1784    0.0389    0.2652    0.2635
  Py  C   11   -0.1672   -0.0690    0.1499    0.1251
  Pz  C   11    0.0084   -0.0014   -0.0117   -0.0116
  S   H   12   -0.0187   -0.0411    0.0011   -0.0101
  S   C   13   -0.0456   -0.0356   -0.0013   -0.0097
  Px  C   13   -0.0619   -0.2169   -0.2330    0.2531
  Py  C   13    0.0734   -0.0686   -0.1229    0.1567
  Pz  C   13   -0.0025    0.0028    0.0063   -0.0088
  S   H   14   -0.0353   -0.0454   -0.0210   -0.0032
  S   H   15    0.0483    0.0537   -0.0036    0.0393
  S   H   16   -0.0119    0.0279   -0.0290    0.0190
  S   H   17    0.0312   -0.0129    0.0296    0.0155
  S   H   18    0.0642    0.0545   -0.0011    0.0427
  S   H   19   -0.0474   -0.0174    0.0169    0.0039
  S   H   20   -0.0468   -0.0132   -0.0024   -0.0078
  S   C   21    0.0084    0.0211    0.0036   -0.0293
  Px  C   21   -0.3109   -0.0191    0.1514    0.1750
  Py  C   21   -0.1709    0.0426    0.1160    0.0495
  Pz  C   21    0.0130   -0.0012   -0.0072   -0.0062
  S   C   22    0.0527    0.0351   -0.0116   -0.0383
  Px  C   22   -0.0908   -0.0819    0.0090    0.0728
  Py  C   22   -0.2505    0.1199    0.1944    0.0587
  Pz  C   22   -0.0008    0.0119    0.0062   -0.0043
  S   C   23    0.0371    0.0495    0.0112   -0.0392
  Px  C   23    0.0183   -0.2973   -0.1741    0.1140
  Py  C   23   -0.1142    0.0540    0.0825    0.0274
  Pz  C   23   -0.0094    0.0212    0.0155   -0.0044
  S   C   24    0.0194   -0.0008   -0.0104   -0.0270
  Px  C   24   -0.0180   -0.3247   -0.1712    0.1551
  Py  C   24   -0.0588   -0.1744   -0.0544    0.1314
  Pz  C   24   -0.0048   -0.0111   -0.0028    0.0111
  S   H   25    0.0028    0.0241    0.0166   -0.0199
  S   H   26    0.0482    0.0439   -0.0033   -0.0362
  S   H   27    0.0531    0.0563    0.0056   -0.0425
  S   H   28    0.0214   -0.0086   -0.0235   -0.0159
  S   C   29   -0.0101   -0.0048   -0.0121   -0.0246
  Px  C   29   -0.3134   -0.0288    0.1617    0.2109
  Py  C   29   -0.1205   -0.0550    0.2048    0.1302
  Pz  C   29    0.0111    0.0036   -0.0091   -0.0092
  S   C   30   -0.0094   -0.0209    0.0073   -0.0172
  Px  C   30   -0.0986   -0.2422   -0.2252    0.2334
  Py  C   30   -0.0177   -0.1961   -0.0137    0.1103
  Pz  C   30   -0.0053   -0.0214   -0.0100    0.0122


              NET ATOMIC CHARGES AND DIPOLE CONTRIBUTIONS

  ATOM NO.   TYPE          CHARGE      No. of ELECS.   s-Pop       p-Pop       
    1          C          -0.029676        4.0297     1.09346     2.93622
    2          C          -0.035366        4.0354     1.09321     2.94216
    3          C           0.017342        3.9827     1.06519     2.91747
    4          C           0.015121        3.9849     1.06506     2.91981
    5          C          -0.019140        4.0191     1.09021     2.92893
    6          C          -0.020016        4.0200     1.08267     2.93734
    7          C          -0.036239        4.0362     1.11293     2.92331
    8          C          -0.036939        4.0369     1.10897     2.92797
    9          C           0.011446        3.9886     1.07501     2.91354
   10          C           0.000306        3.9997     1.08731     2.91239
   11          C          -0.026844        4.0268     1.09937     2.92747
   12          H           0.017485        0.9825     0.98251
   13          C          -0.037351        4.0374     1.09846     2.93889
   14          H           0.029044        0.9710     0.97096
   15          H           0.018121        0.9819     0.98188
   16          H           0.030266        0.9697     0.96973
   17          H           0.013490        0.9865     0.98651
   18          H           0.029074        0.9709     0.97093
   19          H           0.019166        0.9808     0.98083
   20          H           0.031480        0.9685     0.96852
   21          C          -0.029185        4.0292     1.09883     2.93036
   22          C          -0.034712        4.0347     1.11670     2.91801
   23          C          -0.031805        4.0318     1.09761     2.93419
   24          C          -0.024948        4.0249     1.08828     2.93667
   25          H           0.029278        0.9707     0.97072
   26          H           0.025465        0.9745     0.97453
   27          H           0.027708        0.9723     0.97229
   28          H           0.026083        0.9739     0.97392
   29          C           0.007835        3.9922     1.07378     2.91838
   30          C           0.013513        3.9865     1.07002     2.91647
 DIPOLE           X         Y         Z       TOTAL
 POINT-CHG.    -0.084    -0.001    -0.016     0.086
 HYBRID         0.111     0.002    -0.078     0.135
 SUM            0.027     0.000    -0.094     0.098


          ATOMIC ORBITAL ELECTRON POPULATIONS

     Atom    s        px        py        pz   
    1  C   1.09346   0.98490   0.95268   0.99864
    2  C   1.09321   0.98203   0.95162   1.00850
    3  C   1.06519   0.96618   0.97040   0.98088
    4  C   1.06506   0.96462   0.97013   0.98506
    5  C   1.09021   0.96797   0.95588   1.00508
    6  C   1.08267   0.94157   0.99752   0.99825
    7  C   1.11293   0.96436   0.94691   1.01204
    8  C   1.10897   0.97199   0.94024   1.01573
    9  C   1.07501   0.97763   0.96329   0.97263
   10  C   1.08731   0.96837   0.96001   0.98401
   11  C   1.09937   0.96481   0.95493   1.00773
   12  H   0.98251
   13  C   1.09846   0.97131   0.94434   1.02324
   14  H   0.97096
   15  H   0.98188
   16  H   0.96973
   17  H   0.98651
   18  H   0.97093
   19  H   0.98083
   20  H   0.96852
   21  C   1.09883   0.96630   0.95794   1.00612
   22  C   1.11670   0.93459   0.98585   0.99758
   23  C   1.09761   0.98004   0.95332   1.00083
   24  C   1.08828   0.97482   0.96169   1.00016
   25  H   0.97072
   26  H   0.97453
   27  H   0.97229
   28  H   0.97392
   29  C   1.07378   0.96085   0.96748   0.99005
   30  C   1.07002   0.97516   0.96924   0.97207

 **********************
 *                    *
 * JOB ENDED NORMALLY *
 *                    *
 **********************



 TOTAL JOB TIME:             3.88 SECONDS

 == MOPAC DONE ==


          MOPAC Job: "./tetraceneTraj/tetracene_1513.mop" ended normally on Feb 15, 2023, at 11:34.

rm: cannot remove ./tetraceneTraj/tetracene_1513.cim: No such file or directory
rm: cannot remove ./tetraceneTraj/tetracene_1513.end: No such file or directory
rm: cannot remove ./tetraceneTraj/tetracene_1513.log: No such file or directory
rm: cannot remove ./tetraceneTraj/tetracene_1513.temp: No such file or directory
rm: cannot remove ./tetraceneTraj/tetracene_1513.ple: No such file or directory
rm: cannot remove ./tetraceneTraj/tetracene_1513.sts: No such file or directory
