 *******************************************************************************
 ** Site#:    0         For non-commercial use only    Version 20.173L 64BITS **
 *******************************************************************************
 ** Cite this program as: MOPAC2016, Version: 20.173L, James J. P. Stewart,   **
 ** Stewart Computational Chemistry, web-site: HTTP://OpenMOPAC.net.          **
 *******************************************************************************
 **                                                                           **
 **                                MOPAC2016                                  **
 **                                                                           **
 *******************************************************************************

                              INDO CALCULATION RESULTS

 *******************************************************************************
 *  CALCULATION DONE:                                Wed Feb 15 11:41:31 2023  *
 *  INDO       - The INDO Hamiltonian to be used
 *
 *
 *
 *                 CHARGE ON SYSTEM = 0
 *
 *
 *
 *  C.I.=(N,M) - 3 DOUBLY FILLED LEVELS USED IN A C.I. INVOLVING 6 M.O.'S
 *  T=         - A TIME OF 172800.0 SECONDS REQUESTED
 *  DUMP=N     - RESTART FILE WRITTEN EVERY 7200.0 SECONDS REQUESTED
 *  RELSCF     - DEFAULT SCF CRITERION MULTIPLIED BY 0.0000
 *              (DEFAULT SCF CRITERION = 0.00010)
 *  ALLVEC     - PRINT ALL EIGENVECTORS
 **********
 *  WARNING: Specified print options may not behave as expected with INDO
 **********
 *******************************************************************************
INDO C.I.=(6,3) AllVEC CHARGE=0 RELSCF=0.000001


   ATOM   CHEMICAL          X               Y               Z
  NUMBER   SYMBOL      (ANGSTROMS)     (ANGSTROMS)     (ANGSTROMS)
 
     1       C         18.47296033  *  19.51435617  *  22.36085402  *
     2       C         19.84390887  *  19.49518776  *  22.44154429  *
     3       C         20.65127966  *  20.70823887  *  22.46059439  *
     4       C         19.94984944  *  21.99859973  *  22.51431715  *
     5       C         18.49156218  *  22.01355215  *  22.48526115  *
     6       C         17.79352027  *  20.82867223  *  22.36302265  *
     7       C         22.06307565  *  20.65499061  *  22.40350446  *
     8       C         20.70223306  *  23.18019577  *  22.55688572  *
     9       C         22.13879218  *  23.12187212  *  22.58549578  *
    10       C         22.81522636  *  21.84621366  *  22.53125335  *
    11       C         24.28514716  *  21.79978322  *  22.58939567  *
    12       H         24.76956119  *  20.79467703  *  22.55485189  *
    13       C         22.96372985  *  24.33030913  *  22.63626488  *
    14       H         22.56826416  *  19.68341841  *  22.35973025  *
    15       H         17.91123442  *  18.56868489  *  22.32571041  *
    16       H         20.29946173  *  18.49827783  *  22.49981341  *
    17       H         17.99700189  *  22.99763695  *  22.36877554  *
    18       H         16.70471904  *  20.85493805  *  22.29691186  *
    19       H         20.13935759  *  24.13142677  *  22.59543151  *
    20       H         22.50770612  *  25.30272636  *  22.74397026  *
    21       C         26.54703875  *  23.04852897  *  22.55187587  *
    22       C         27.21488305  *  24.22436868  *  22.40768846  *
    23       C         26.51541140  *  25.51858980  *  22.44094944  *
    24       C         25.12905629  *  25.50952753  *  22.50204040  *
    25       H         27.14381117  *  22.13748601  *  22.55754603  *
    26       H         28.34050162  *  24.30748203  *  22.37138754  *
    27       H         27.07259640  *  26.41605739  *  22.34990989  *
    28       H         24.53830870  *  26.45042234  *  22.46018068  *
    29       C         25.07647736  *  22.95328761  *  22.64580017  *
    30       C         24.34647615  *  24.24169537  *  22.56657078  *
 


          CARTESIAN COORDINATES 

    NO.       ATOM           X           Y           Z

     1         C         18.4730     19.5144     22.3609
     2         C         19.8439     19.4952     22.4415
     3         C         20.6513     20.7082     22.4606
     4         C         19.9498     21.9986     22.5143
     5         C         18.4916     22.0136     22.4853
     6         C         17.7935     20.8287     22.3630
     7         C         22.0631     20.6550     22.4035
     8         C         20.7022     23.1802     22.5569
     9         C         22.1388     23.1219     22.5855
    10         C         22.8152     21.8462     22.5313
    11         C         24.2851     21.7998     22.5894
    12         H         24.7696     20.7947     22.5549
    13         C         22.9637     24.3303     22.6363
    14         H         22.5683     19.6834     22.3597
    15         H         17.9112     18.5687     22.3257
    16         H         20.2995     18.4983     22.4998
    17         H         17.9970     22.9976     22.3688
    18         H         16.7047     20.8549     22.2969
    19         H         20.1394     24.1314     22.5954
    20         H         22.5077     25.3027     22.7440
    21         C         26.5470     23.0485     22.5519
    22         C         27.2149     24.2244     22.4077
    23         C         26.5154     25.5186     22.4409
    24         C         25.1291     25.5095     22.5020
    25         H         27.1438     22.1375     22.5575
    26         H         28.3405     24.3075     22.3714
    27         H         27.0726     26.4161     22.3499
    28         H         24.5383     26.4504     22.4602
    29         C         25.0765     22.9533     22.6458
    30         C         24.3465     24.2417     22.5666

           Empirical Formula: C18 H12  =    30 atoms



      MOLECULAR POINT GROUP   :   Cs  


      RHF CALCULATION, NO. OF DOUBLY OCCUPIED LEVELS = 42

 WARNING: INDO only performs single-point calculations
  SCF CRITERION =    0.1000E-09

 Summary of symmetry occupancy in each shell:

 SHELL     
    1   42
    v   42
 TOTAL  84




    ROOT NO.    1           2           3           4           5           6

           -44.54608   -42.81977   -40.26214   -36.99562   -35.58122   -34.09781
  
  
  S  C   1   0.13306    -0.20113    -0.26650    -0.24751    -0.09692     0.12037
 PX  C   1   0.03787    -0.05050    -0.05014    -0.02000    -0.05608     0.08259
 PY  C   1   0.04753    -0.06821    -0.08083    -0.05863     0.02307    -0.04534
 PZ  C   1   0.00359    -0.00517    -0.00613    -0.00438    -0.00234     0.00317
  
  S  C   2   0.17239    -0.22414    -0.22522    -0.12736    -0.21239     0.26868
 PX  C   2  -0.00516     0.02906     0.07753     0.10873    -0.03383     0.02933
 PY  C   2   0.06716    -0.07849    -0.05823    -0.00146    -0.01287     0.00672
 PZ  C   2  -0.00064     0.00163     0.00328     0.00406     0.00107    -0.00151
  
  S  C   3   0.30185    -0.26855    -0.06179     0.15945    -0.18133     0.19289
 PX  C   3   0.00370     0.05602     0.14450     0.13433    -0.07866     0.05036
 PY  C   3   0.06080    -0.02266     0.06307     0.09871     0.11366    -0.12056
 PZ  C   3   0.00093     0.00049     0.00274     0.00257     0.00498    -0.00495
  
  S  C   4   0.30117    -0.27099    -0.06834     0.16051     0.21413    -0.19020
 PX  C   4   0.05245     0.01156     0.13095     0.15344    -0.03720     0.08629
 PY  C   4  -0.03076     0.05714     0.08062     0.05760     0.12995    -0.10467
 PZ  C   4  -0.00332     0.00508     0.00601     0.00339     0.00268    -0.00034
  
  S  C   5   0.16995    -0.22085    -0.22019    -0.11254     0.20496    -0.27760
 PX  C   5   0.05490    -0.05306    -0.01213     0.05301     0.04739    -0.02946
 PY  C   5  -0.04087     0.06644     0.09480     0.09015     0.03236    -0.01629
 PZ  C   5  -0.00393     0.00621     0.00863     0.00801    -0.00357     0.00741
  
  S  C   6   0.13464    -0.20283    -0.26679    -0.24167     0.05950    -0.12336
 PX  C   6   0.06024    -0.08385    -0.09285    -0.05615     0.00565    -0.00863
 PY  C   6   0.00480    -0.00320     0.00579     0.02289     0.06593    -0.09662
 PZ  C   6   0.00401    -0.00578    -0.00682    -0.00459     0.00266    -0.00443
  
  S  C   7   0.25796    -0.11352     0.15749     0.21901    -0.31671     0.16338
 PX  C   7  -0.03906     0.06923     0.03768    -0.07433    -0.01588    -0.08072
 PY  C   7   0.08572    -0.01183     0.08860     0.06315     0.00305    -0.03880
 PZ  C   7   0.01112    -0.00338     0.00944     0.00916    -0.00899     0.00218
  
  S  C   8   0.25346    -0.11710     0.14215     0.21214     0.32814    -0.14760
 PX  C   8   0.04438     0.03101     0.09141     0.00379    -0.00713     0.08563
 PY  C   8  -0.08321     0.06552    -0.02006    -0.10081    -0.00232     0.03721
 PZ  C   8  -0.00219     0.00278     0.00118    -0.00279     0.00148     0.00204
  
  S  C   9   0.33026     0.03596     0.28911    -0.01108     0.20388     0.02323
 PX  C   9   0.01592     0.09432     0.01908    -0.18938    -0.07895     0.03982
 PY  C   9  -0.06081     0.04303    -0.05063    -0.10483     0.12137     0.04073
 PZ  C   9  -0.00473     0.00251    -0.00356    -0.00693     0.00297     0.00088
  
  S  C  10   0.33355     0.03429     0.29724     0.00468    -0.21775    -0.02266
 PX  C  10  -0.04274     0.08670    -0.03171    -0.18443    -0.06331    -0.07695
 PY  C  10   0.04338     0.05379     0.03682    -0.10446     0.13355    -0.02421
 PZ  C  10   0.00006     0.00415     0.00044    -0.01029     0.00614    -0.00361
  
  S  C  11   0.21735     0.16339     0.13496    -0.21433    -0.28502    -0.23003
 PX  C  11  -0.04914     0.01628    -0.08905     0.00835     0.01874    -0.07095
 PY  C  11   0.06337     0.07969     0.01008    -0.10214     0.01274    -0.04618
 PZ  C  11  -0.00212    -0.00035    -0.00158    -0.00238     0.00462    -0.00045
  
  S  H  12   0.06467     0.04488     0.03979    -0.05128    -0.14162    -0.10394
  
  S  C  13   0.22431     0.17609     0.13037    -0.25175     0.27889     0.21612
 PX  C  13   0.02706     0.07718    -0.04123    -0.08049    -0.01573     0.06523
 PY  C  13  -0.07462    -0.02900    -0.08031     0.06361     0.00810     0.05409
 PZ  C  13  -0.00491    -0.00361    -0.00254     0.00371    -0.00249    -0.00270
  
  S  H  14   0.07755    -0.03322     0.04421     0.05769    -0.16241     0.07794
  
  S  H  15   0.03363    -0.05402    -0.07971    -0.08784    -0.04186     0.05632
  
  S  H  16   0.05139    -0.06549    -0.06414    -0.03638    -0.10593     0.13424
  
  S  H  17   0.05140    -0.06423    -0.05950    -0.02443     0.10575    -0.13625
  
  S  H  18   0.03457    -0.05538    -0.08122    -0.08736     0.02639    -0.05631
  
  S  H  19   0.07480    -0.03578     0.03506     0.05480     0.16245    -0.07874
  
  S  H  20   0.07015     0.05643     0.03466    -0.07454     0.14804     0.12002
  
  S  C  21   0.12561     0.24649    -0.22835     0.14707    -0.15150    -0.28372
 PX  C  21  -0.03985    -0.05811     0.01326     0.05332     0.02772     0.03445
 PY  C  21   0.02950     0.07148    -0.09213     0.09408     0.02016     0.02880
 PZ  C  21  -0.00152    -0.00378     0.00559    -0.00768     0.00040     0.00111
  
  S  C  22   0.10006     0.22564    -0.26978     0.27123    -0.05504    -0.10322
 PX  C  22  -0.04416    -0.09188     0.09214    -0.06097     0.00578     0.00595
 PY  C  22  -0.00408    -0.00485    -0.00377     0.01910     0.04681     0.10607
 PZ  C  22   0.00467     0.01030    -0.01147     0.00946    -0.00344    -0.00741
  
  S  C  23   0.09806     0.22055    -0.26227     0.25717     0.05776     0.14712
 PX  C  23  -0.02563    -0.04952     0.04049    -0.00583    -0.04074    -0.08279
 PY  C  23  -0.03570    -0.07663     0.08244    -0.06666     0.01832     0.03971
 PZ  C  23   0.00156     0.00299    -0.00228    -0.00021     0.00063     0.00062
  
  S  C  24   0.12940     0.24693    -0.21420     0.10292     0.16095     0.29975
 PX  C  24   0.00118     0.02774    -0.07489     0.12026    -0.03995    -0.03481
 PY  C  24  -0.05028    -0.08737     0.05754     0.00148    -0.01262    -0.00929
 PZ  C  24   0.00106     0.00080     0.00208    -0.00604     0.00134    -0.00008
  
  S  H  25   0.03736     0.07249    -0.06665     0.04493    -0.07596    -0.14200
  
  S  H  26   0.02466     0.05943    -0.07988     0.09656    -0.02109    -0.04159
  
  S  H  27   0.02622     0.06264    -0.08293     0.09651     0.02539     0.06788
  
  S  H  28   0.04080     0.07352    -0.05650     0.01558     0.08625     0.15259
  
  S  C  29   0.23165     0.31317    -0.07722    -0.15784    -0.16806    -0.25048
 PX  C  29  -0.05099    -0.00764    -0.11717     0.16353    -0.01897    -0.06009
 PY  C  29   0.02451     0.06540    -0.07921     0.04887     0.09309     0.11041
 PZ  C  29  -0.00958    -0.01419     0.00647     0.00167     0.00765     0.01067
  
  S  C  30   0.24385     0.32538    -0.07050    -0.19479     0.14852     0.19164
 PX  C  30  -0.01369     0.04431    -0.13196     0.14211    -0.07676    -0.06866
 PY  C  30  -0.04849    -0.03085    -0.05669     0.09063     0.09732     0.16030
 PZ  C  30   0.00289     0.00211     0.00426    -0.00977     0.00189     0.00006




    ROOT NO.    7           8           9          10          11          12

           -31.70065   -31.29839   -28.97835   -28.16926   -26.91098   -25.99773
  
  
  S  C   1   0.16258     0.26857     0.16707     0.26680    -0.03942     0.17684
 PX  C   1   0.10885    -0.06774     0.11315    -0.14249    -0.05180     0.05965
 PY  C   1  -0.07523     0.01960    -0.09994    -0.01841     0.10944    -0.07619
 PZ  C   1   0.00444    -0.00045     0.00511    -0.00580    -0.00066     0.00389
  
  S  C   2   0.26990    -0.03105     0.17504    -0.11954    -0.12819    -0.01416
 PX  C   2  -0.03545    -0.15180    -0.11990    -0.13294    -0.01101    -0.20652
 PY  C   2  -0.02539    -0.08406    -0.07021    -0.10813     0.12993    -0.06385
 PZ  C   2  -0.00266    -0.00589    -0.00348    -0.00659     0.00133    -0.00529
  
  S  C   3   0.07111    -0.26037    -0.09691    -0.15052     0.15102    -0.14551
 PX  C   3  -0.06122     0.02176    -0.13387     0.14480    -0.06328    -0.10287
 PY  C   3  -0.07108    -0.00490     0.01746     0.10050     0.15860     0.16728
 PZ  C   3  -0.00085     0.00073     0.00518     0.00149     0.00506     0.00922
  
  S  C   4  -0.04390    -0.23900     0.13270    -0.10045     0.04038     0.20931
 PX  C   4   0.11417     0.01038     0.03909     0.16324     0.12227    -0.02879
 PY  C   4   0.00911     0.03856     0.11431     0.10514    -0.21461     0.04301
 PZ  C   4   0.00517     0.00295     0.00778     0.00609    -0.00674     0.00211
  
  S  C   5  -0.27866    -0.04057    -0.14895    -0.13964    -0.10610    -0.04779
 PX  C   5   0.04297    -0.13580     0.14650    -0.11596    -0.01632     0.20176
 PY  C   5   0.02866    -0.07126     0.08803    -0.02458    -0.14231     0.06449
 PZ  C   5   0.01268    -0.00678     0.01558    -0.00191    -0.00059     0.01487
  
  S  C   6  -0.19041     0.25295    -0.23270     0.21599     0.08299    -0.19080
 PX  C   6   0.00367    -0.02629     0.03639    -0.09273     0.02976     0.08564
 PY  C   6  -0.12870    -0.08003    -0.11858    -0.14200    -0.03183    -0.11616
 PZ  C   6  -0.00566    -0.00143    -0.00421    -0.00838     0.00189    -0.00085
  
  S  C   7  -0.17780    -0.03082    -0.23597     0.09241    -0.17065    -0.06691
 PX  C   7  -0.12218     0.14262     0.04795     0.03702    -0.16165     0.17252
 PY  C   7  -0.05606     0.08579     0.01322     0.10299     0.12881     0.15848
 PZ  C   7  -0.00783     0.00447    -0.00335     0.00705     0.00263     0.00813
  
  S  C   8   0.17993     0.02357     0.21783     0.14676    -0.19214    -0.07071
 PX  C   8   0.10656     0.15818    -0.07227     0.06979     0.12726    -0.17609
 PY  C   8   0.04327     0.07399    -0.03272    -0.04609    -0.14437    -0.15351
 PZ  C   8   0.00534     0.00517     0.00065    -0.00026    -0.00543    -0.00879
  
  S  C   9   0.20580     0.27925    -0.01040    -0.00841     0.12223    -0.15876
 PX  C   9  -0.07506     0.02017    -0.08042    -0.19237     0.09100     0.10270
 PY  C   9   0.11919    -0.01895    -0.04549    -0.11123    -0.17739    -0.17768
 PZ  C   9   0.00398    -0.00148    -0.00041    -0.00893    -0.00753    -0.00760
  
  S  C  10  -0.21483     0.23715    -0.00674     0.01725     0.02702     0.21543
 PX  C  10  -0.07059    -0.01374     0.12235    -0.16411    -0.13275     0.03369
 PY  C  10   0.13976     0.05476     0.06466    -0.09656     0.23404    -0.04902
 PZ  C  10   0.00695     0.00172     0.00984    -0.01227     0.00968    -0.00426
  
  S  C  11  -0.16005    -0.00241     0.25191    -0.09624    -0.17620    -0.05032
 PX  C  11   0.11833    -0.14318     0.04733     0.07352    -0.00408    -0.21807
 PY  C  11   0.06697    -0.06335     0.04607    -0.04092     0.19308    -0.05930
 PZ  C  11   0.00643    -0.00488     0.00303    -0.00224     0.00804    -0.00916
  
  S  H  12  -0.08209    -0.00451     0.10496    -0.00737    -0.20190    -0.05213
  
  S  C  13   0.14263     0.01619    -0.23243    -0.15827    -0.16101    -0.03112
 PX  C  13  -0.10617    -0.15894    -0.04353     0.02335     0.05301     0.22295
 PY  C  13  -0.05780    -0.09813    -0.04531     0.09676    -0.16991     0.05981
 PZ  C  13   0.00074    -0.00078     0.00037     0.00051    -0.00618    -0.00445
  
  S  H  14  -0.08914    -0.02117    -0.10527     0.00232    -0.20911    -0.07390
  
  S  H  15   0.08439     0.14118     0.09923     0.18441    -0.05994     0.11146
  
  S  H  16   0.13436    -0.00886     0.09233    -0.03545    -0.14306    -0.02583
  
  S  H  17  -0.13015    -0.02059    -0.06311    -0.05093    -0.13182    -0.04704
  
  S  H  18  -0.09699     0.13760    -0.13845     0.15997     0.02425    -0.15096
  
  S  H  19   0.07513     0.00204     0.10718     0.02746    -0.21814    -0.06436
  
  S  H  20   0.06397    -0.00456    -0.12491    -0.03215    -0.19711    -0.04353
  
  S  C  21   0.28644    -0.02644    -0.21607     0.10697    -0.11369     0.00880
 PX  C  21   0.02564     0.13961    -0.12800    -0.14498    -0.08909     0.17396
 PY  C  21   0.00667     0.07483    -0.05959    -0.04693     0.06553     0.12265
 PZ  C  21  -0.00428    -0.01151     0.01084     0.01150     0.00325    -0.01685
  
  S  C  22   0.14020     0.26081    -0.17374    -0.25307    -0.03574     0.18586
 PX  C  22   0.00221     0.02735    -0.02263    -0.09754    -0.05303     0.04565
 PY  C  22  -0.14372     0.07658     0.17102    -0.11628     0.08367    -0.09302
 PZ  C  22   0.01045     0.00104    -0.01211     0.00597    -0.00128     0.00678
  
  S  C  23  -0.20249     0.24806     0.24320    -0.20146     0.05990    -0.17361
 PX  C  23   0.09282     0.08871    -0.07569    -0.17800     0.00721     0.06134
 PY  C  23  -0.06245    -0.02261     0.08832     0.00309    -0.03609    -0.11244
 PZ  C  23   0.00087    -0.00762    -0.00355     0.01329     0.00003     0.00345
  
  S  C  24  -0.27048    -0.07075     0.14206     0.17639    -0.08508    -0.03662
 PX  C  24  -0.04437     0.14053     0.15624    -0.08378     0.10403    -0.16163
 PY  C  24  -0.02593     0.08092     0.07395    -0.08042    -0.05787    -0.10871
 PZ  C  24   0.00530    -0.01015    -0.01159     0.00708    -0.00141     0.01173
  
  S  H  25   0.14375    -0.00586    -0.11709     0.03080    -0.12360    -0.00119
  
  S  H  26   0.06251     0.14248    -0.08990    -0.18472    -0.04474     0.11541
  
  S  H  27  -0.10427     0.14057     0.14482    -0.15716     0.01552    -0.12926
  
  S  H  28  -0.12755    -0.03752     0.05282     0.07228    -0.11267    -0.02354
  
  S  C  29   0.09156    -0.24136     0.12771     0.12309     0.12197    -0.18172
 PX  C  29   0.10516    -0.00847    -0.09486     0.15286    -0.08872    -0.06805
 PY  C  29   0.00940    -0.03929    -0.11183     0.07908     0.13655     0.13553
 PZ  C  29  -0.00375     0.00662    -0.00321    -0.00666    -0.00451     0.00348
  
  S  C  30  -0.05107    -0.25570    -0.10571     0.10546     0.06306     0.17932
 PX  C  30  -0.04389    -0.04637     0.11691     0.18028     0.09133    -0.05663
 PY  C  30  -0.08554    -0.00895    -0.06219     0.09717    -0.18900     0.07629
 PZ  C  30   0.00481    -0.00553    -0.00636    -0.00569     0.00321     0.00334




    ROOT NO.   13          14          15          16          17          18

           -25.19660   -23.98092   -22.72095   -21.45919   -20.75682   -19.34460
  
  
  S  C   1  -0.00992     0.13532     0.00499     0.17424    -0.04953    -0.02223
 PX  C   1   0.03206    -0.23015    -0.00390    -0.04101     0.20599     0.18458
 PY  C   1  -0.14206     0.01347    -0.20531    -0.09452    -0.13589     0.20093
 PZ  C   1  -0.00142    -0.01335    -0.00391    -0.00343     0.01283     0.01525
  
  S  C   2   0.14225    -0.18208     0.08869    -0.15140     0.10110     0.04379
 PX  C   2   0.07500     0.02182     0.05386    -0.16778    -0.12378    -0.13838
 PY  C   2  -0.17442     0.01417    -0.21035    -0.04943    -0.15820     0.07521
 PZ  C   2   0.00056    -0.00351     0.00231    -0.01103     0.00179    -0.00777
  
  S  C   3  -0.10493     0.09817     0.00010    -0.08305    -0.05941    -0.15185
 PX  C   3   0.15408     0.14036     0.16402     0.10288    -0.00676    -0.02983
 PY  C   3  -0.17478     0.09096     0.01253     0.12554     0.14835    -0.08751
 PZ  C   3  -0.00773    -0.00288    -0.00059    -0.00576     0.00965    -0.00799
  
  S  C   4  -0.10136     0.09288     0.00197     0.09888    -0.04501    -0.14963
 PX  C   4  -0.08086     0.16656     0.07358    -0.17160     0.08112    -0.06141
 PY  C   4   0.21827     0.07031     0.11902    -0.02455    -0.09875     0.03978
 PZ  C   4   0.00485     0.00434     0.00045    -0.00743    -0.00589     0.00049
  
  S  C   5   0.16391    -0.19174     0.11665     0.10118     0.13663     0.00569
 PX  C   5  -0.08777     0.01236    -0.12643     0.18069    -0.16947    -0.02497
 PY  C   5   0.16157     0.01223     0.16177     0.08398    -0.02387    -0.17025
 PZ  C   5  -0.00806     0.00721    -0.01082     0.00866    -0.01650    -0.00215
  
  S  C   6  -0.01910     0.13768    -0.00893    -0.15357    -0.06262     0.01783
 PX  C   6  -0.09522    -0.12750    -0.16237     0.12681     0.02656     0.23300
 PY  C   6   0.10364    -0.19954     0.10980    -0.08145     0.25001     0.04299
 PZ  C   6  -0.00289    -0.01536    -0.00711     0.00281     0.01345     0.02006
  
  S  C   7   0.13390     0.09908    -0.05682     0.21549    -0.06444     0.12651
 PX  C   7   0.00321    -0.12773    -0.18549     0.07384     0.02443     0.16463
 PY  C   7  -0.10276    -0.07641     0.05496     0.00993     0.21245     0.01009
 PZ  C   7  -0.00391    -0.00414     0.00327    -0.00397     0.01441    -0.00603
  
  S  C   8   0.09819     0.10567    -0.09125    -0.19239    -0.09141     0.15983
 PX  C   8  -0.09600    -0.13581    -0.07189    -0.06977     0.20200     0.07654
 PY  C   8   0.06383    -0.06715    -0.17395    -0.02779    -0.10372     0.13425
 PZ  C   8   0.00046    -0.00312    -0.01102    -0.00540    -0.00334     0.00423
  
  S  C   9  -0.00325    -0.22734    -0.00683    -0.01135     0.01092    -0.00420
 PX  C   9   0.03277    -0.06428     0.11390     0.16702    -0.16700    -0.16547
 PY  C   9  -0.00742     0.07315    -0.20546     0.10712    -0.07272    -0.09027
 PZ  C   9  -0.00050     0.00365    -0.00983     0.00423    -0.00664    -0.01499
  
  S  C  10   0.00769    -0.21892     0.00928    -0.01031    -0.00450     0.02392
 PX  C  10  -0.00817     0.03378    -0.12011    -0.15411    -0.17437    -0.14172
 PY  C  10   0.01260    -0.09581     0.19269    -0.10095    -0.09583    -0.08904
 PZ  C  10  -0.00215    -0.00286     0.00943    -0.02079    -0.01079    -0.02238
  
  S  C  11  -0.16891     0.10323    -0.06084    -0.21176     0.07032    -0.15683
 PX  C  11  -0.09968     0.14825     0.08319     0.05584     0.19443     0.05004
 PY  C  11   0.09349     0.05821     0.16940     0.04840    -0.11328     0.12477
 PZ  C  11  -0.00201     0.00893     0.01349    -0.00173     0.00287     0.00162
  
  S  H  12  -0.16399     0.06050    -0.10879    -0.11294     0.15881    -0.14325
  
  S  C  13  -0.10990     0.09875    -0.05211     0.21023     0.07989    -0.15006
 PX  C  13   0.04088     0.14580     0.17677    -0.08859    -0.00870     0.16379
 PY  C  13  -0.12532     0.09623    -0.03375    -0.02535     0.21860     0.00359
 PZ  C  13  -0.00319     0.00494    -0.00918     0.00880     0.01185    -0.01103
  
  S  H  14   0.12672     0.05639    -0.11706     0.12008    -0.14988     0.11080
  
  S  H  15   0.06011     0.13819     0.12105     0.16292    -0.01891    -0.21259
  
  S  H  16   0.19431    -0.09531     0.18591    -0.09092     0.11485    -0.06897
  
  S  H  17   0.20187    -0.09360     0.18972     0.04242     0.10435    -0.09273
  
  S  H  18   0.05030     0.15085     0.10500    -0.16988    -0.04913    -0.16607
  
  S  H  19   0.11932     0.05843    -0.11707    -0.08444    -0.17366     0.13655
  
  S  H  20  -0.14434     0.06550    -0.09365     0.11274     0.17515    -0.12438
  
  S  C  21  -0.16015    -0.17824     0.10510     0.11779    -0.10850    -0.00569
 PX  C  21  -0.09077     0.00122     0.13411    -0.17286    -0.20130    -0.01131
 PY  C  21   0.17262    -0.00627    -0.17877    -0.11956    -0.01071    -0.17788
 PZ  C  21  -0.00139     0.00037    -0.00024     0.02244     0.01658     0.01425
  
  S  C  22   0.04018     0.15429    -0.01787    -0.17307     0.05072    -0.01576
 PX  C  22  -0.08803     0.13813     0.16610    -0.09991     0.00088     0.24454
 PY  C  22   0.09970     0.18927    -0.08846     0.05829     0.23773     0.04593
 PZ  C  22   0.00276    -0.01506    -0.00800     0.00218    -0.00987    -0.01859
  
  S  C  23  -0.00322     0.09389     0.02444     0.17207     0.03415     0.00237
 PX  C  23   0.05114     0.25143     0.01209     0.02964     0.20463     0.18800
 PY  C  23  -0.14784    -0.01627     0.21161     0.13628    -0.13136     0.20140
 PZ  C  23   0.00280    -0.01649    -0.00909    -0.00694    -0.00948    -0.01919
  
  S  C  24  -0.16923    -0.19490     0.09316    -0.14151    -0.12255    -0.02486
 PX  C  24   0.07258    -0.06412    -0.06320     0.16717    -0.11116    -0.17085
 PY  C  24  -0.17735    -0.02514     0.20480     0.07455    -0.15118     0.06179
 PZ  C  24   0.00642     0.00501    -0.00808    -0.00627     0.01215     0.00419
  
  S  H  25  -0.20699    -0.08731     0.20150     0.06075    -0.12521     0.09993
  
  S  H  26  -0.02899     0.17630     0.09710    -0.15357     0.04026     0.18081
  
  S  H  27  -0.06221     0.12767     0.13668     0.18383     0.01772     0.20479
  
  S  H  28  -0.20912    -0.08913     0.18129    -0.08401    -0.10453     0.08421
  
  S  C  29   0.08326     0.09056     0.00698     0.11208     0.07432     0.13548
 PX  C  29  -0.09460    -0.16003    -0.06604     0.17349     0.11965    -0.05220
 PY  C  29   0.25309    -0.07665    -0.14226     0.03479    -0.08716     0.05278
 PZ  C  29  -0.00600     0.00511     0.00687    -0.00044     0.00225     0.00428
  
  S  C  30   0.15043     0.11645    -0.01286    -0.08300     0.02923     0.15804
 PX  C  30   0.13012    -0.14104    -0.16626    -0.09714     0.00931    -0.00317
 PY  C  30  -0.18888    -0.06763    -0.00141    -0.13641     0.13527    -0.06556
 PZ  C  30   0.00654     0.01542     0.00236     0.01287     0.00297     0.00882




    ROOT NO.   19          20          21          22          23          24

           -18.43421   -17.31566   -16.89062   -16.62674   -16.13877   -15.20009
  
  
  S  C   1  -0.16261    -0.03655     0.04179    -0.11126    -0.02782     0.05530
 PX  C   1   0.07710     0.16111     0.05255     0.00260    -0.19105     0.16617
 PY  C   1   0.10807    -0.16989    -0.03632     0.08598    -0.20658     0.12359
 PZ  C   1   0.01035     0.01387    -0.00433     0.01704    -0.00966    -0.03698
  
  S  C   2   0.16664    -0.01856    -0.00097     0.06651    -0.01809     0.05177
 PX  C   2   0.10413    -0.16297    -0.07571     0.08210     0.18967    -0.15287
 PY  C   2  -0.04002    -0.17535     0.12691    -0.20640     0.04593     0.23216
 PZ  C   2   0.01910     0.00163    -0.01047     0.02687     0.02457    -0.06446
  
  S  C   3  -0.02687    -0.01684     0.15092    -0.16747     0.09226    -0.00800
 PX  C   3  -0.16465    -0.03242     0.02768    -0.03514    -0.22508    -0.12931
 PY  C   3  -0.03363     0.29154     0.00007     0.03351     0.02758    -0.07481
 PZ  C   3   0.02110     0.01142    -0.00373     0.02372     0.03165    -0.06660
  
  S  C   4   0.06348     0.08823    -0.13395     0.16646     0.08250    -0.01789
 PX  C   4   0.14957     0.19333     0.06037    -0.06418    -0.07296     0.17907
 PY  C   4   0.08875    -0.15061    -0.09786     0.10327    -0.20032     0.11007
 PZ  C   4   0.01669    -0.00243    -0.01026     0.02705     0.00961    -0.05904
  
  S  C   5  -0.16547    -0.01233     0.00260    -0.07232     0.01189    -0.02783
 PX  C   5  -0.03897    -0.15156    -0.13258     0.18139     0.09595    -0.15546
 PY  C   5  -0.07185    -0.16855     0.11447    -0.16302     0.12645     0.30176
 PZ  C   5   0.00567    -0.00885    -0.01599     0.02996     0.01256    -0.06071
  
  S  C   6   0.14823     0.00809    -0.04884     0.11115    -0.06227    -0.04687
 PX  C   6  -0.19812    -0.03061    -0.02073    -0.06915    -0.21148    -0.09854
 PY  C   6   0.01077     0.26038     0.01378    -0.01628    -0.02208    -0.13206
 PZ  C   6  -0.00894     0.01627    -0.00837     0.00927    -0.01430    -0.06183
  
  S  C   7  -0.11471     0.06019    -0.02531     0.04665    -0.08777    -0.00296
 PX  C   7   0.13600     0.09778    -0.10698     0.14282     0.14582     0.12059
 PY  C   7   0.11445    -0.02855     0.29317    -0.08757    -0.01215    -0.12377
 PZ  C   7   0.01644    -0.00504     0.02703     0.00108     0.01390    -0.06316
  
  S  C   8   0.07707     0.03359     0.02859    -0.05564    -0.06483    -0.00523
 PX  C   8  -0.17917     0.11435    -0.12438    -0.05409     0.15888     0.04725
 PY  C   8  -0.07083    -0.06259     0.24777    -0.17029     0.06983    -0.23534
 PZ  C   8   0.00121     0.00154     0.00786     0.01013     0.01539    -0.05612
  
  S  C   9  -0.14647    -0.08243    -0.19989     0.00157     0.09142     0.04580
 PX  C   9   0.05166    -0.14598     0.01343     0.06944    -0.07367    -0.03596
 PY  C   9  -0.06550     0.24602    -0.01419    -0.02124     0.12119     0.00660
 PZ  C   9   0.00208     0.01139     0.01295     0.01856     0.01365    -0.05130
  
  S  C  10   0.14365    -0.15741     0.15839     0.03278     0.05469    -0.06688
 PX  C  10   0.07414     0.11671     0.05808    -0.04111     0.12272     0.00125
 PY  C  10  -0.07708    -0.21954    -0.14509     0.01616    -0.07616     0.02796
 PZ  C  10  -0.00013    -0.01301     0.00084     0.00620     0.00827    -0.05268
  
  S  C  11  -0.07313     0.02938    -0.01195    -0.06682    -0.05945    -0.00835
 PX  C  11  -0.19466    -0.04896    -0.14736     0.01032    -0.18206     0.02068
 PY  C  11  -0.09036     0.00387     0.21969     0.20325    -0.11814    -0.10677
 PZ  C  11  -0.01248    -0.00509     0.00939     0.01281    -0.01177    -0.03988
  
  S  H  12  -0.03917     0.00354    -0.24124    -0.18578    -0.00925     0.09262
  
  S  C  13   0.10314     0.04133     0.03405     0.04292    -0.09017     0.02571
 PX  C  13   0.12755    -0.03344    -0.14622    -0.17644    -0.15573     0.06135
 PY  C  13   0.10093    -0.07955     0.23965     0.11498    -0.06115    -0.03809
 PZ  C  13   0.01016     0.00855     0.04342     0.03132     0.00219    -0.03652
  
  S  H  14  -0.08646     0.09370    -0.28730     0.14594     0.01688     0.14635
  
  S  H  15  -0.18942     0.03223     0.02338    -0.12008     0.22218    -0.14297
  
  S  H  16   0.14460     0.06754    -0.13358     0.22690     0.02854    -0.22136
  
  S  H  17  -0.11945    -0.07784     0.14893    -0.23765     0.05861     0.28697
  
  S  H  18   0.23208     0.03234    -0.00569     0.11296     0.15033     0.06470
  
  S  H  19   0.05762    -0.07877     0.26168    -0.13627    -0.05327    -0.19581
  
  S  H  20   0.07678    -0.02597     0.26762     0.18374    -0.03775    -0.04073
  
  S  C  21   0.15344    -0.01531    -0.01217    -0.05581     0.00833     0.02098
 PX  C  21  -0.05881     0.21668    -0.03507    -0.16660    -0.14079    -0.10622
 PY  C  21  -0.09582     0.10209     0.12639     0.13755    -0.11471     0.23453
 PZ  C  21   0.01819    -0.02577    -0.00220     0.00492     0.02799    -0.02509
  
  S  C  22  -0.16199    -0.00818     0.04229     0.11129    -0.03949     0.04811
 PX  C  22  -0.16200     0.03305     0.01255     0.06474     0.22262    -0.08289
 PY  C  22   0.01570    -0.23644    -0.07661     0.01971     0.04768    -0.12138
 PZ  C  22   0.01274     0.00831     0.00631    -0.00304    -0.01354     0.00124
  
  S  C  23   0.15798    -0.00300    -0.04247    -0.10502    -0.06332    -0.04136
 PX  C  23   0.09379    -0.17557    -0.01861    -0.00474     0.19131     0.08127
 PY  C  23   0.13420     0.15718     0.03389    -0.08899     0.16814     0.08020
 PZ  C  23  -0.00765     0.01077     0.00589     0.00512    -0.01575    -0.01683
  
  S  C  24  -0.17639    -0.00732    -0.00327     0.06915     0.01575    -0.03635
 PX  C  24   0.08970     0.18120    -0.00379    -0.08393    -0.22557    -0.08616
 PY  C  24  -0.05481     0.10509     0.16074     0.22030    -0.01411     0.21220
 PZ  C  24   0.00540    -0.00431     0.00337    -0.00295     0.01105    -0.02113
  
  S  H  25   0.11498     0.01719    -0.11757    -0.20738     0.02238    -0.21663
  
  S  H  26  -0.20689     0.00932     0.02767     0.11188     0.17897    -0.05380
  
  S  H  27   0.21187     0.03026    -0.00645    -0.12043     0.17503     0.07655
  
  S  H  28  -0.15928    -0.01293     0.12737     0.24132     0.09442     0.18337
  
  S  C  29  -0.05536     0.00802     0.13362     0.17229     0.06473     0.03257
 PX  C  29   0.16168    -0.23630    -0.04998     0.04421     0.12138     0.08785
 PY  C  29   0.11679     0.15125     0.00847    -0.08106     0.22367     0.06780
 PZ  C  29   0.00316    -0.00042     0.00574     0.00360     0.00203    -0.03476
  
  S  C  30   0.04790     0.05786    -0.12547    -0.19222     0.07490    -0.03166
 PX  C  30  -0.13848     0.01033     0.06908     0.06039     0.23183    -0.09478
 PY  C  30  -0.03051    -0.25165    -0.12855    -0.06538    -0.01708    -0.10317
 PZ  C  30   0.01831     0.01991     0.02369     0.00993    -0.00009    -0.02101




    ROOT NO.   25          26          27          28          29          30

           -14.88592   -14.86732   -14.68268   -14.49437   -13.81774   -13.39561
  
  
  S  C   1   0.03699    -0.00534    -0.03626     0.01752    -0.04872    -0.02165
 PX  C   1  -0.20399    -0.08787    -0.05728     0.11525    -0.10641    -0.02097
 PY  C   1   0.04309    -0.14261     0.19238    -0.05834    -0.10879    -0.07346
 PZ  C   1   0.03621     0.00034     0.03028     0.11981     0.05216    -0.22304
  
  S  C   2  -0.02955    -0.06904     0.06901    -0.01230     0.03744     0.00115
 PX  C   2   0.17219     0.05677     0.09133    -0.14092     0.13692     0.06092
 PY  C   2   0.00555    -0.10261    -0.10024     0.07052     0.09572     0.01369
 PZ  C   2   0.06766     0.00155     0.05088     0.14146     0.08666    -0.23771
  
  S  C   3  -0.02839     0.04505    -0.03116     0.03095    -0.01842    -0.00864
 PX  C   3   0.05261     0.10014     0.10360    -0.01896    -0.26855    -0.07403
 PY  C   3  -0.13903     0.05682    -0.06010     0.04141    -0.04259    -0.00556
 PZ  C   3   0.10025    -0.01964     0.05900     0.25458     0.10474    -0.28318
  
  S  C   4  -0.03903    -0.02456    -0.01749    -0.00230    -0.01105     0.00003
 PX  C   4  -0.05488    -0.02991    -0.16265     0.09570    -0.15443    -0.05931
 PY  C   4   0.09853    -0.06846     0.04772    -0.03360    -0.18534    -0.03955
 PZ  C   4   0.10773    -0.02130     0.04974     0.25640     0.08132    -0.28761
  
  S  C   5   0.09766     0.02105     0.00985    -0.02216     0.02039    -0.01734
 PX  C   5   0.00471    -0.00855     0.16490    -0.10408     0.13373     0.07127
 PY  C   5  -0.02364    -0.25094     0.08900    -0.00000     0.09510    -0.04224
 PZ  C   5   0.06099    -0.00009     0.04327     0.14674     0.07344    -0.23481
  
  S  C   6  -0.01442     0.01753     0.03842    -0.01562    -0.05421    -0.00268
 PX  C   6   0.20420     0.13187    -0.01086    -0.06137    -0.17510    -0.02580
 PY  C   6  -0.06154     0.18027    -0.20232     0.07300    -0.04313     0.05830
 PZ  C   6   0.06024     0.02852     0.01348     0.11633     0.03967    -0.21988
  
  S  C   7  -0.06260    -0.02049     0.00028     0.01222     0.01887    -0.00394
 PX  C   7  -0.07253    -0.13099    -0.05967     0.02609     0.28558     0.05418
 PY  C   7  -0.11492     0.00158     0.31243    -0.07555     0.08978     0.00568
 PZ  C   7   0.09872    -0.02373     0.07675     0.23495     0.04632    -0.14293
  
  S  C   8   0.02733     0.05778    -0.06654     0.00962     0.01469     0.01315
 PX  C   8   0.21037    -0.06072    -0.02951    -0.10922     0.19529     0.02956
 PY  C   8  -0.15765     0.16271     0.04441     0.02434     0.16106     0.07242
 PZ  C   8   0.10154    -0.02585     0.03890     0.23865     0.04852    -0.14240
  
  S  C   9   0.00740    -0.00266     0.01929     0.01064     0.00869     0.00796
 PX  C   9  -0.24894     0.05757     0.05519     0.11058    -0.19483    -0.02789
 PY  C   9  -0.17481    -0.00576     0.07465     0.02570    -0.07770    -0.07404
 PZ  C   9   0.13124    -0.05678     0.04535     0.29881    -0.01376    -0.00430
  
  S  C  10   0.00609    -0.00917    -0.02323    -0.01733     0.00890     0.01210
 PX  C  10   0.10134     0.04301    -0.25518    -0.01529    -0.21577    -0.06290
 PY  C  10   0.08773     0.06551    -0.15904     0.00836    -0.13775     0.02181
 PZ  C  10   0.15120    -0.03804     0.02704     0.30199    -0.02452    -0.00283
  
  S  C  11   0.07558     0.02876    -0.00381    -0.02946    -0.03688    -0.01166
 PX  C  11  -0.09601    -0.02939     0.22413    -0.00505     0.21013     0.04630
 PY  C  11   0.02647    -0.14012    -0.27005    -0.05551     0.17818    -0.02250
 PZ  C  11   0.09679    -0.04895     0.03160     0.22245    -0.01082     0.16225
  
  S  H  12  -0.02680     0.11207     0.29307     0.02743    -0.08226     0.02739
  
  S  C  13  -0.03603    -0.03430     0.04554     0.00849    -0.01863    -0.00863
 PX  C  13   0.01144     0.16057    -0.01460     0.06255     0.24780     0.09085
 PY  C  13   0.29016    -0.12938    -0.11356    -0.15531     0.03598     0.02080
 PZ  C  13   0.13447    -0.07860     0.03494     0.20335    -0.04184     0.16003
  
  S  H  14   0.02942    -0.05950    -0.26108     0.06474     0.05424     0.02482
  
  S  H  15   0.08060     0.15018    -0.14429    -0.00390     0.11503     0.06853
  
  S  H  16   0.05275     0.07126     0.14590    -0.11173     0.00525     0.00530
  
  S  H  17   0.01601    -0.18115     0.00659     0.02129     0.03013    -0.05127
  
  S  H  18  -0.19790    -0.10775     0.02359     0.04356     0.13747     0.03968
  
  S  H  19  -0.19167     0.16987     0.01807     0.07796     0.04991     0.04504
  
  S  H  20   0.21403    -0.17256    -0.06490    -0.12052    -0.08252    -0.00743
  
  S  C  21   0.03044     0.07427    -0.06090     0.01455    -0.01070    -0.00109
 PX  C  21   0.12864    -0.14162     0.00668    -0.08561     0.11405     0.01743
 PY  C  21   0.16953     0.25784     0.14514    -0.02420     0.09169     0.04659
 PZ  C  21   0.03064    -0.03866     0.00903     0.15345    -0.06121     0.26277
  
  S  C  22  -0.03331     0.04145     0.02383     0.01577     0.04877     0.00082
 PX  C  22  -0.11648    -0.21868     0.14153     0.00533    -0.18651     0.01264
 PY  C  22  -0.19701    -0.08336    -0.18924     0.10059    -0.02773    -0.00268
 PZ  C  22   0.05942    -0.00406     0.01665     0.10628    -0.02313     0.24729
  
  S  C  23   0.03635    -0.02864    -0.04395    -0.01371     0.04644     0.01398
 PX  C  23   0.07322     0.22817    -0.11665     0.02451    -0.04184    -0.02592
 PY  C  23   0.19146     0.05260     0.17251    -0.09640    -0.10115    -0.00746
 PZ  C  23   0.03673    -0.04316     0.02619     0.10302    -0.02904     0.23984
  
  S  C  24  -0.09468    -0.04836    -0.00958     0.03404    -0.03488    -0.00497
 PX  C  24  -0.01858    -0.22455     0.10403    -0.03049     0.07299     0.05508
 PY  C  24  -0.02532     0.20750     0.06864     0.07815     0.08739     0.04465
 PZ  C  24   0.06817    -0.04178     0.02469     0.12580    -0.04545     0.24926
  
  S  H  25  -0.05195    -0.22790    -0.13132    -0.01486    -0.02825    -0.02760
  
  S  H  26  -0.13313    -0.17865     0.13366     0.01361    -0.15895     0.00220
  
  S  H  27   0.19701     0.13362     0.05194    -0.07847    -0.07675    -0.03087
  
  S  H  28  -0.05082     0.23832    -0.00904     0.08316     0.01280    -0.00402
  
  S  C  29   0.00319    -0.03457     0.02355     0.00778     0.02043     0.02731
 PX  C  29  -0.11327     0.17081    -0.02586     0.10618    -0.13357     0.00534
 PY  C  29   0.06383     0.02905     0.15997    -0.01022    -0.20577    -0.00924
 PZ  C  29   0.09548    -0.05861     0.03891     0.23403    -0.04282     0.31046
  
  S  C  30   0.02411    -0.01242     0.06951    -0.03318     0.01302    -0.00844
 PX  C  30   0.06291    -0.16539     0.01324    -0.07333    -0.24493    -0.06605
 PY  C  30  -0.04043    -0.00548    -0.15203     0.02895    -0.01257    -0.00393
 PZ  C  30   0.12152    -0.06177     0.05517     0.22420    -0.04052     0.31075




    ROOT NO.   31          32          33          34          35          36

           -13.06894   -13.02863   -12.08079   -11.78137   -11.72103   -11.47172
  
  
  S  C   1  -0.01340    -0.00892     0.00444     0.00352     0.00060    -0.00843
 PX  C   1   0.20135     0.16924    -0.11962     0.04149     0.05359    -0.15252
 PY  C   1  -0.18598     0.15846     0.18794    -0.03596    -0.04882    -0.03993
 PZ  C   1   0.01209    -0.02343     0.02574     0.26371    -0.18838    -0.02726
  
  S  C   2  -0.00648    -0.00038    -0.04378     0.01351     0.01820     0.03995
 PX  C   2  -0.18119    -0.18109     0.06456    -0.05698    -0.01724     0.17996
 PY  C   2   0.12655    -0.18071    -0.23274     0.06455     0.06309     0.10853
 PZ  C   2  -0.01661    -0.03754     0.05565     0.18923    -0.15177     0.00650
  
  S  C   3  -0.00730    -0.01755     0.01267     0.00498    -0.00379    -0.01797
 PX  C   3  -0.00859     0.16199    -0.11183     0.07792     0.08544    -0.20299
 PY  C   3  -0.02746     0.17904     0.30258    -0.09340    -0.12306    -0.10931
 PZ  C   3   0.00229    -0.02758     0.03968     0.04382    -0.03532     0.01254
  
  S  C   4   0.02357     0.04263     0.00091     0.00243     0.00682     0.01311
 PX  C   4  -0.10885    -0.13176     0.17875    -0.05759    -0.09065     0.22260
 PY  C   4  -0.01465    -0.11852    -0.27348     0.09815     0.12673     0.14404
 PZ  C   4   0.03621    -0.03144    -0.02633     0.06399    -0.02935    -0.01964
  
  S  C   5  -0.03782    -0.01599    -0.02540     0.02745     0.01078    -0.03534
 PX  C   5   0.11560     0.16833    -0.15618     0.03864     0.08806    -0.20826
 PY  C   5  -0.08633     0.15175     0.14636    -0.01883    -0.04810    -0.07732
 PZ  C   5   0.04149    -0.02313    -0.03600     0.21771    -0.12523    -0.05599
  
  S  C   6  -0.02104     0.01074     0.01596    -0.01216     0.00021     0.02247
 PX  C   6  -0.21977    -0.14713     0.12840    -0.06630    -0.02939     0.15129
 PY  C   6   0.16302    -0.16729    -0.17754     0.01223     0.05961     0.08234
 PZ  C   6   0.01319    -0.06108    -0.00701     0.26948    -0.18012    -0.01773
  
  S  C   7   0.02421     0.06846    -0.02942     0.03137     0.02988     0.01259
 PX  C   7  -0.00412    -0.11735     0.09113    -0.06453    -0.06012     0.22147
 PY  C   7  -0.14231     0.01634    -0.13855     0.07166     0.10308     0.14218
 PZ  C   7  -0.01602     0.01224     0.00031    -0.11937     0.12237     0.02221
  
  S  C   8  -0.04179    -0.07166    -0.02340     0.01834     0.03579    -0.01126
 PX  C   8  -0.12585     0.08346    -0.03954     0.05534     0.09451    -0.23788
 PY  C   8   0.10698     0.09935     0.16460    -0.07626    -0.10518    -0.14476
 PZ  C   8   0.03237     0.01294    -0.01692    -0.12369     0.07512    -0.02423
  
  S  C   9   0.04915     0.05218    -0.00676     0.00248     0.00175     0.00418
 PX  C   9   0.15551    -0.01971     0.06564    -0.05752    -0.11791     0.24197
 PY  C   9  -0.22425     0.13305    -0.05852     0.13910     0.18890     0.17106
 PZ  C   9   0.01329     0.05257    -0.01992    -0.27878     0.17829     0.01434
  
  S  C  10   0.01149    -0.05470     0.00878    -0.00219     0.01271     0.00492
 PX  C  10  -0.16581     0.05232     0.02345     0.11050     0.13129    -0.20586
 PY  C  10   0.24558    -0.04301     0.09818    -0.08271    -0.20353    -0.15738
 PZ  C  10   0.01160     0.05458     0.01313    -0.27148     0.20352    -0.00948
  
  S  C  11   0.00622     0.06916     0.00601     0.04250     0.04384    -0.02302
 PX  C  11   0.17389    -0.00061    -0.00871    -0.06737    -0.11350     0.20423
 PY  C  11  -0.02846     0.12527     0.08688     0.10981     0.15469     0.10936
 PZ  C  11  -0.01150     0.06652     0.01804    -0.09441     0.11421     0.04315
  
  S  H  12   0.10160    -0.07699    -0.08159    -0.11971    -0.19446    -0.02504
  
  S  C  13  -0.03397    -0.07557     0.00293     0.01839     0.04240     0.02641
 PX  C  13  -0.09019    -0.12622     0.06233     0.01263     0.09381    -0.22752
 PY  C  13   0.14140    -0.09076    -0.01221    -0.07337    -0.14659    -0.17015
 PZ  C  13   0.01470     0.03243    -0.02672    -0.15117     0.02522     0.00514
  
  S  H  14   0.12996    -0.03386     0.16033    -0.08633    -0.12903    -0.02089
  
  S  H  15   0.04755    -0.22385    -0.09824     0.00089     0.02009     0.11622
  
  S  H  16  -0.18606     0.07652     0.23098    -0.07445    -0.07198     0.00056
  
  S  H  17  -0.14396     0.05053     0.20552    -0.04864    -0.07644     0.01454
  
  S  H  18   0.20909     0.14890    -0.12554     0.04414     0.04226    -0.14502
  
  S  H  19   0.12890     0.00795     0.16379    -0.09946    -0.13672    -0.01870
  
  S  H  20   0.13819    -0.05720    -0.04190    -0.08692    -0.16835    -0.04535
  
  S  C  21  -0.02697     0.02546     0.01685     0.02316     0.03234    -0.02844
 PX  C  21   0.03507     0.19923    -0.12383    -0.04550    -0.15361     0.15060
 PY  C  21   0.16464     0.04022     0.12750     0.09036     0.10078     0.06785
 PZ  C  21  -0.06815     0.01732     0.02220     0.23769    -0.09784     0.00321
  
  S  C  22  -0.01130    -0.01296    -0.00292    -0.01619     0.00865     0.00575
 PX  C  22   0.06364    -0.25103     0.11620     0.06202     0.08458    -0.09791
 PY  C  22  -0.24161    -0.00042    -0.15512    -0.06709    -0.12840    -0.06927
 PZ  C  22  -0.03821     0.04846     0.02462     0.30020    -0.14521     0.03268
  
  S  C  23  -0.01550     0.01473    -0.01494    -0.00035    -0.01986    -0.01614
 PX  C  23  -0.03005     0.28225    -0.09611    -0.00579    -0.09198     0.13954
 PY  C  23   0.24648    -0.00566     0.16298     0.08918     0.12397     0.05358
 PZ  C  23  -0.03431     0.00435     0.02747     0.27631    -0.14531     0.00759
  
  S  C  24  -0.01218     0.00769     0.02223     0.02699     0.03291     0.04726
 PX  C  24   0.00554    -0.27857     0.06281     0.00509     0.04288    -0.16707
 PY  C  24  -0.19847    -0.08495    -0.16068    -0.09597    -0.14759    -0.13599
 PZ  C  24  -0.01441     0.03526     0.02137     0.19940    -0.11393     0.02410
  
  S  H  25  -0.12600     0.08190    -0.17074    -0.09409    -0.16525     0.01016
  
  S  H  26   0.04991    -0.25682     0.11157     0.04235     0.09273    -0.10637
  
  S  H  27   0.18356     0.14455     0.07923     0.05056     0.05953     0.11356
  
  S  H  28  -0.16743     0.07378    -0.16686    -0.08662    -0.14501    -0.00880
  
  S  C  29  -0.00187    -0.04474     0.01074     0.00701     0.01113     0.01443
 PX  C  29  -0.03883    -0.17128     0.13717     0.07737     0.16551    -0.15744
 PY  C  29  -0.04413    -0.08295    -0.16900    -0.13459    -0.22057    -0.13138
 PZ  C  29  -0.04544     0.05784     0.01530     0.06873    -0.00079     0.03427
  
  S  C  30   0.01614     0.01781    -0.01815    -0.01594    -0.01230    -0.01620
 PX  C  30   0.14249     0.16237    -0.06716    -0.04054    -0.12910     0.19952
 PY  C  30   0.10916     0.12476     0.19842     0.15393     0.23190     0.13134
 PZ  C  30  -0.03376     0.02869    -0.01350     0.01935    -0.05201    -0.00266




    ROOT NO.   37          38          39          40          41          42

           -10.54368    -9.93727    -9.68236    -8.29255    -8.12240    -6.85204
  
  
  S  C   1  -0.00115     0.00631     0.00065     0.00377    -0.00883    -0.00569
 PX  C   1  -0.01480     0.02143     0.00885     0.00740    -0.02175    -0.01267
 PY  C   1   0.01742     0.00672    -0.01617     0.01310    -0.00591    -0.00800
 PZ  C   1  -0.12151    -0.34535     0.16531    -0.22830     0.26685     0.19411
  
  S  C   2   0.00264    -0.00497    -0.00336     0.00098     0.00690     0.00160
 PX  C   2   0.03291     0.00379    -0.03567     0.02402     0.01143    -0.00900
 PY  C   2  -0.01955    -0.01093     0.01700    -0.01285     0.00650     0.00780
 PZ  C   2  -0.22543    -0.15349     0.31752    -0.34241    -0.00357     0.21219
  
  S  C   3   0.00136    -0.00048     0.00306    -0.00050    -0.00633    -0.00460
 PX  C   3  -0.01847     0.01383     0.02869    -0.01246    -0.02734    -0.00508
 PY  C   3   0.01782     0.00019    -0.02187     0.01438     0.00786    -0.00394
 PZ  C   3  -0.22349     0.22678     0.23625    -0.03622    -0.36256    -0.14591
  
  S  C   4   0.00021     0.00423    -0.00119     0.00188    -0.00339     0.00239
 PX  C   4   0.01817    -0.00409    -0.02105     0.01629     0.00467    -0.00570
 PY  C   4  -0.01829    -0.01335     0.02274    -0.01169     0.01156     0.00323
 PZ  C   4   0.23342     0.26101    -0.20974     0.01790    -0.35161     0.12556
  
  S  C   5   0.01810    -0.00558    -0.02583     0.02748    -0.00041    -0.01948
 PX  C   5  -0.03343     0.00551     0.03977    -0.03261     0.00166     0.01526
 PY  C   5   0.01030    -0.00496    -0.00985     0.00428     0.00234    -0.00058
 PZ  C   5   0.21859    -0.09931    -0.33387     0.35015     0.01273    -0.22119
  
  S  C   6  -0.00079     0.00793     0.00459    -0.00704    -0.00584     0.00627
 PX  C   6   0.00642     0.02888     0.00644    -0.01693    -0.02299     0.01542
 PY  C   6  -0.02093     0.02178     0.02578    -0.02331    -0.01783     0.01490
 PZ  C   6   0.10023    -0.31417    -0.19613     0.24028     0.27555    -0.17753
  
  S  C   7   0.01288    -0.00846    -0.00056    -0.01693     0.00050     0.01841
 PX  C   7   0.00648    -0.00163    -0.01465     0.01400     0.01569    -0.00776
 PY  C   7   0.04480    -0.02076    -0.01775    -0.02054     0.00886     0.02780
 PZ  C   7  -0.33747     0.19348     0.20828     0.23192    -0.00597    -0.35696
  
  S  C   8  -0.00303    -0.00609     0.00723    -0.00164     0.00095    -0.00406
 PX  C   8  -0.00406    -0.00535     0.00770    -0.00054     0.00008    -0.00546
 PY  C   8  -0.01174    -0.00294     0.00054     0.01208    -0.00014    -0.01701
 PZ  C   8   0.34328     0.22460    -0.18074    -0.23617    -0.00495     0.36581
  
  S  C   9   0.00583    -0.00496     0.00757    -0.00434    -0.00048    -0.00427
 PX  C   9  -0.00310     0.00115    -0.00524     0.01041    -0.00814    -0.00276
 PY  C   9   0.02037    -0.01839     0.01138     0.00886    -0.01846    -0.00467
 PZ  C   9   0.25565     0.01344     0.00735    -0.22191     0.38443     0.02710
  
  S  C  10  -0.00122    -0.00059    -0.00344     0.00796     0.00475     0.00199
 PX  C  10   0.02098    -0.01196     0.01330    -0.01590    -0.03004     0.00562
 PY  C  10  -0.00766     0.01054    -0.00300    -0.01803    -0.03577     0.00502
 PZ  C  10  -0.25318     0.02069     0.00432     0.22835     0.36823    -0.00367
  
  S  C  11   0.00346    -0.00141     0.00269    -0.00553    -0.00494    -0.00198
 PX  C  11   0.00868     0.01725     0.00160    -0.00562     0.01528    -0.02013
 PY  C  11   0.03339     0.00611     0.02056    -0.00950     0.00603    -0.02636
 PZ  C  11  -0.31302    -0.20335    -0.24294     0.21289    -0.02784     0.37956
  
  S  H  12  -0.01824     0.01093    -0.01005    -0.00239     0.00253     0.00248
  
  S  C  13   0.00093    -0.00217    -0.00150     0.00251     0.00074     0.00083
 PX  C  13   0.02563    -0.01846     0.01744    -0.01459     0.00308    -0.01906
 PY  C  13  -0.05760     0.03665    -0.02721     0.01499     0.00481     0.03320
 PZ  C  13   0.31694    -0.23953     0.19925    -0.21381    -0.00203    -0.37318
  
  S  H  14  -0.01896     0.00766    -0.00215     0.01224     0.00018    -0.01086
  
  S  H  15  -0.00444    -0.00350     0.00494    -0.00815     0.00636     0.00764
  
  S  H  16   0.02215     0.00222    -0.01820     0.00672     0.00308     0.00021
  
  S  H  17   0.01069    -0.00146    -0.00557    -0.00570     0.00160     0.00906
  
  S  H  18  -0.01598    -0.00713     0.01094    -0.00342     0.00592    -0.00093
  
  S  H  19   0.00198     0.00717    -0.01048     0.00384     0.00041    -0.00084
  
  S  H  20  -0.03374     0.02010    -0.01443     0.00168     0.00212     0.00531
  
  S  C  21   0.00355     0.00131    -0.00042    -0.00892     0.00361    -0.00898
 PX  C  21  -0.03193     0.01832    -0.03795    -0.02370    -0.00330    -0.01441
 PY  C  21  -0.00601     0.00747    -0.02675    -0.03013     0.00046    -0.02138
 PZ  C  21  -0.19028     0.16959    -0.31819    -0.33152     0.03115    -0.23328
  
  S  C  22   0.00571    -0.02041     0.00657     0.01025    -0.01441     0.00875
 PX  C  22  -0.00458     0.02662    -0.00840    -0.01556     0.02022    -0.01261
 PY  C  22  -0.01007     0.02172    -0.00162    -0.00479     0.01367    -0.00609
 PZ  C  22  -0.08892     0.36585    -0.13838    -0.21220     0.24268    -0.18917
  
  S  C  23  -0.00054     0.01312     0.00528     0.00778     0.00840     0.00840
 PX  C  23   0.01362     0.02093     0.02255     0.01952     0.01185     0.01289
 PY  C  23   0.01073     0.00159     0.00565     0.00436     0.00243     0.00517
 PZ  C  23   0.10746     0.32112     0.24095     0.24995     0.20715     0.21930
  
  S  C  24   0.01527    -0.00709     0.01113     0.00103    -0.00708    -0.00609
 PX  C  24  -0.00699     0.00624     0.00176     0.00866     0.00335     0.01070
 PY  C  24  -0.01052     0.01712     0.01147     0.02099     0.00954     0.01933
 PZ  C  24   0.20823     0.08979     0.36456     0.34312    -0.02284     0.23180
  
  S  H  25  -0.01391     0.00775    -0.00052     0.00869     0.00102     0.00789
  
  S  H  26   0.00067     0.00748    -0.00115    -0.00634     0.00972    -0.00537
  
  S  H  27   0.00664    -0.00851    -0.00252    -0.00584    -0.00617    -0.00632
  
  S  H  28  -0.01000     0.00782    -0.00124     0.00280     0.00516     0.00266
  
  S  C  29  -0.02195    -0.01616    -0.02385     0.00400    -0.02158     0.01508
 PX  C  29   0.01608    -0.01532     0.00813    -0.00229    -0.00493     0.00399
 PY  C  29  -0.03680     0.00943    -0.01437     0.00748    -0.00470     0.01714
 PZ  C  29  -0.21058    -0.25534    -0.27668    -0.02886    -0.31749     0.15407
  
  S  C  30  -0.00686     0.01330    -0.00660    -0.00204     0.01931     0.00487
 PX  C  30  -0.00654    -0.00190     0.00016     0.00463    -0.01239    -0.00479
 PY  C  30   0.04701    -0.04068     0.02069    -0.00897    -0.02883    -0.01975
 PZ  C  30   0.21436    -0.30117     0.21028     0.01309    -0.31623    -0.17234




    ROOT NO.   43          44          45          46          47          48

            -0.91300     0.25452     0.30703     1.27077     1.41208     1.77054
  
  
  S  C   1   0.00371     0.01193     0.00220    -0.00678    -0.01189     0.00896
 PX  C   1   0.00858     0.01779     0.00564    -0.00299    -0.01851     0.00388
 PY  C   1   0.00333     0.00657     0.00346    -0.00302    -0.00786     0.00465
 PZ  C   1  -0.19556    -0.29709    -0.17580     0.05346     0.37891    -0.08509
  
  S  C   2   0.00163    -0.00444     0.00269     0.01105     0.00133    -0.01059
 PX  C   2  -0.01128    -0.00628    -0.01590     0.01737     0.01158    -0.01239
 PY  C   2   0.00631    -0.00175     0.01039    -0.00248    -0.00612     0.00239
 PZ  C   2   0.21982     0.06441     0.33349    -0.26975    -0.24099     0.20557
  
  S  C   3  -0.00346     0.01106    -0.00398    -0.02126     0.00070     0.01741
 PX  C   3  -0.00123     0.01305    -0.00955     0.00424    -0.00080    -0.00798
 PY  C   3  -0.00526    -0.00847     0.00431    -0.01431     0.00366     0.01244
 PZ  C   3   0.15039     0.34411    -0.09059     0.30681    -0.14695    -0.22847
  
  S  C   4  -0.01052    -0.01008    -0.01571     0.02633     0.00551    -0.02759
 PX  C   4   0.00292     0.00158     0.01306    -0.01696    -0.00477     0.01434
 PY  C   4  -0.00632     0.01478    -0.00025    -0.00881    -0.01638     0.01037
 PZ  C   4   0.13151    -0.35327     0.02875     0.13414     0.33210    -0.22904
  
  S  C   5   0.02283     0.01317     0.03820    -0.05001    -0.00926     0.04412
 PX  C   5  -0.01542     0.00065    -0.02481     0.02420    -0.00066    -0.01386
 PY  C   5   0.00091    -0.00240     0.00302    -0.00539     0.00319     0.00364
 PZ  C   5   0.21782     0.04168     0.33637    -0.34779     0.00271     0.22659
  
  S  C   6  -0.00366    -0.01065    -0.00788     0.01394     0.01405    -0.01855
 PX  C   6   0.01001    -0.01940     0.01428    -0.01275     0.02037     0.00229
 PY  C   6   0.00600    -0.01105     0.00634    -0.00320     0.00979    -0.00266
 PZ  C   6  -0.19079     0.22420    -0.28202     0.28862    -0.24961    -0.12943
  
  S  C   7   0.02448     0.00004     0.01591     0.03281    -0.01118    -0.01990
 PX  C   7  -0.00211     0.00055    -0.00014    -0.00035    -0.00052     0.00982
 PY  C   7   0.02903     0.00264     0.01730     0.02370    -0.00796    -0.01808
 PZ  C   7  -0.36205    -0.04279    -0.22907    -0.24379     0.10551     0.33942
  
  S  C   8   0.01163     0.00227     0.00586    -0.00724     0.00667     0.01015
 PX  C   8   0.00721    -0.00074    -0.00218     0.00723     0.00774    -0.00539
 PY  C   8   0.01179     0.00030     0.00421     0.01114     0.01266    -0.01919
 PZ  C   8  -0.36097    -0.03705    -0.22768    -0.11938    -0.27443     0.31416
  
  S  C   9  -0.00555     0.00501    -0.00146     0.00600    -0.00492    -0.00453
 PX  C   9  -0.00147    -0.00729     0.00278    -0.00086    -0.00093     0.00707
 PY  C   9   0.00006    -0.02137    -0.00804    -0.00254     0.00143     0.01053
 PZ  C   9   0.02463     0.42146     0.17216     0.00371     0.02251    -0.23453
  
  S  C  10  -0.01068    -0.00557    -0.00514    -0.02589     0.00989    -0.00804
 PX  C  10   0.00456     0.02068    -0.01354    -0.00722     0.00092    -0.00379
 PY  C  10   0.00271     0.02537    -0.01680     0.00342    -0.00394     0.01393
 PZ  C  10   0.01105    -0.32184     0.29620    -0.00036     0.00081    -0.27615
  
  S  C  11   0.01018    -0.01167     0.00477     0.03874    -0.01732     0.02756
 PX  C  11  -0.01576    -0.00827     0.00993    -0.00251     0.00275     0.00064
 PY  C  11  -0.01341    -0.00775     0.01302     0.00492     0.00111     0.00235
 PZ  C  11   0.37738    -0.07535    -0.20898     0.27227    -0.14431     0.31127
  
  S  H  12  -0.00352     0.00851     0.00057    -0.01456     0.01080    -0.01169
  
  S  C  13  -0.00163    -0.00805     0.00417    -0.01343    -0.00893    -0.01739
 PX  C  13   0.01578    -0.00153    -0.01100     0.00235     0.00701     0.00506
 PY  C  13  -0.02712     0.00713     0.01555    -0.00677    -0.01892    -0.02587
 PZ  C  13   0.36411    -0.02892    -0.22292     0.12351     0.26313     0.32228
  
  S  H  14  -0.00998    -0.00085    -0.00590    -0.01747     0.00328     0.01722
  
  S  H  15  -0.00122    -0.00938     0.00083     0.00265     0.00729    -0.00423
  
  S  H  16  -0.00028    -0.00182     0.00186    -0.00791    -0.00082     0.00825
  
  S  H  17  -0.01245    -0.01065    -0.02362     0.03409     0.00737    -0.03002
  
  S  H  18  -0.00066     0.00481     0.00140    -0.00551    -0.00750     0.00952
  
  S  H  19  -0.00382    -0.00091    -0.00128     0.00269    -0.00459    -0.00211
  
  S  H  20   0.00389     0.00588    -0.00358     0.01143     0.00891     0.01883
  
  S  C  21   0.01051    -0.01563     0.00285     0.03620    -0.01575     0.03450
 PX  C  21  -0.03014     0.01368     0.02334    -0.00461     0.01968    -0.00820
 PY  C  21  -0.01415     0.00124     0.01816     0.01478     0.00787     0.01002
 PZ  C  21  -0.22228     0.06131     0.32098     0.27774     0.22465     0.21477
  
  S  C  22  -0.01972     0.02095     0.01687    -0.00322     0.03370    -0.00133
 PX  C  22   0.01698    -0.01664    -0.01366    -0.00281    -0.02184    -0.00488
 PY  C  22   0.01081    -0.01684    -0.00362     0.01232    -0.02187     0.00718
 PZ  C  22   0.20617    -0.25926    -0.18908    -0.07027    -0.37667    -0.12147
  
  S  C  23   0.01005     0.00511    -0.01726    -0.01944     0.00097    -0.01201
 PX  C  23   0.01495     0.00898    -0.01829    -0.01778     0.01331    -0.00480
 PY  C  23   0.00283     0.01153    -0.00481    -0.00980     0.01914    -0.00214
 PZ  C  23   0.20299     0.19156    -0.26776    -0.29116     0.26989    -0.09059
  
  S  C  24  -0.00758    -0.00527     0.00988     0.00546    -0.00347     0.00081
 PX  C  24  -0.00875     0.00086     0.01459     0.02005    -0.00246     0.01250
 PY  C  24  -0.00707     0.00377     0.01614     0.02559     0.00061     0.01794
 PZ  C  24  -0.23447     0.03712     0.34086     0.36795    -0.02612     0.20810
  
  S  H  25  -0.00103     0.00382    -0.00234    -0.01364     0.00310    -0.01478
  
  S  H  26   0.01493    -0.01572    -0.01100     0.00538    -0.02442     0.00312
  
  S  H  27  -0.00559    -0.00400     0.00934     0.01060    -0.00282     0.00597
  
  S  H  28   0.00708    -0.00037    -0.00696    -0.00222    -0.00008     0.00086
  
  S  C  29  -0.02625     0.03030    -0.00574    -0.06782     0.01898    -0.06241
 PX  C  29   0.00767     0.00858    -0.00630    -0.00153     0.00699     0.00067
 PY  C  29  -0.00188     0.00138     0.00038    -0.00421    -0.00916    -0.01117
 PZ  C  29  -0.16743     0.32514    -0.07007    -0.31412     0.19308    -0.19859
  
  S  C  30   0.01526     0.00773    -0.00297     0.03023     0.01358     0.03729
 PX  C  30  -0.00153    -0.01626     0.00028     0.00002    -0.01419    -0.00086
 PY  C  30  -0.00956    -0.00672    -0.00585    -0.02895    -0.00746    -0.02874
 PZ  C  30  -0.16550    -0.31450     0.02765    -0.14717    -0.33976    -0.24801




    ROOT NO.   49          50          51          52          53          54

             2.38440     2.46329     2.85860     3.13271     3.29589     3.35615
  
  
  S  C   1   0.04954     0.09440    -0.19395     0.06902     0.24863    -0.03578
 PX  C   1  -0.00275     0.02808    -0.01001     0.03440    -0.00057     0.06674
 PY  C   1   0.00431     0.01626    -0.03238    -0.00103     0.02237    -0.05427
 PZ  C   1   0.29474    -0.15530    -0.06470    -0.22020     0.03102     0.04181
  
  S  C   2  -0.07745    -0.13259     0.22177    -0.10744    -0.21479    -0.08155
 PX  C   2  -0.00347    -0.02760     0.00465    -0.02267     0.03441    -0.05022
 PY  C   2  -0.03412    -0.03790     0.05256    -0.01098    -0.02366    -0.03396
 PZ  C   2  -0.23215     0.11184     0.07335     0.23793    -0.02946    -0.04121
  
  S  C   3   0.13030     0.19175    -0.28255     0.09736     0.15854     0.12406
 PX  C   3   0.00692     0.00955     0.05588    -0.00030    -0.06078     0.10008
 PY  C   3   0.01416     0.01826    -0.02042    -0.02237    -0.05627    -0.07905
 PZ  C   3   0.07226    -0.01976    -0.07901    -0.28561     0.03551     0.05823
  
  S  C   4  -0.12424    -0.18226     0.28848    -0.00509    -0.03649     0.16250
 PX  C   4  -0.00442    -0.03725    -0.01255    -0.03063     0.05886    -0.06015
 PY  C   4   0.00942     0.00643    -0.05895     0.02905     0.11771     0.09102
 PZ  C   4  -0.04245     0.03847     0.03646     0.28835    -0.02233    -0.07003
  
  S  C   5   0.10436     0.10672    -0.24648    -0.04113     0.12232    -0.21176
 PX  C   5   0.01553     0.05612    -0.05170     0.01439    -0.03612    -0.02818
 PY  C   5   0.00417    -0.00857     0.01808    -0.01580    -0.03761     0.01887
 PZ  C   5   0.18174    -0.14612     0.00591    -0.22821    -0.00637     0.08856
  
  S  C   6  -0.05081    -0.08838     0.19785    -0.01460    -0.18588     0.18885
 PX  C   6   0.00097    -0.03357     0.03981    -0.01558    -0.02773     0.01562
 PY  C   6  -0.00308    -0.00964     0.00280     0.02494     0.05339     0.04383
 PZ  C   6  -0.27168     0.16798     0.03599     0.21730    -0.01767    -0.04918
  
  S  C   7  -0.12832    -0.19842     0.14213    -0.08248     0.03119    -0.25368
 PX  C   7   0.01090    -0.00271    -0.09321     0.01540     0.10575    -0.03838
 PY  C   7  -0.02967    -0.04185    -0.02322    -0.01356     0.06283    -0.05004
 PZ  C   7   0.10898    -0.10617     0.06613     0.12041    -0.03265    -0.04713
  
  S  C   8   0.11341     0.21131    -0.15329    -0.01102    -0.23432    -0.16920
 PX  C   8   0.01552     0.04451     0.05709    -0.01650    -0.13292     0.00527
 PY  C   8  -0.01196    -0.02348     0.06134     0.00091    -0.04966     0.02100
 PZ  C   8  -0.13600     0.08061    -0.01758    -0.13720     0.02192     0.02093
  
  S  C   9  -0.12501    -0.26505     0.03839     0.04434     0.39896     0.08364
 PX  C   9  -0.00811    -0.01265    -0.07240     0.00912     0.00392    -0.06944
 PY  C   9  -0.00125     0.02979    -0.02716     0.05085    -0.00734     0.15837
 PZ  C   9   0.30073    -0.18205    -0.00937    -0.00786    -0.04827     0.02571
  
  S  C  10   0.13669     0.27113    -0.00999     0.05729    -0.24254     0.28945
 PX  C  10   0.01495     0.00455     0.09024     0.00885     0.06112     0.08234
 PY  C  10   0.02537     0.01758     0.03094    -0.03988    -0.12329    -0.09653
 PZ  C  10  -0.29422     0.17144    -0.02385     0.01146     0.03733    -0.03221
  
  S  C  11  -0.12665    -0.24990    -0.14239    -0.05026     0.02665    -0.28583
 PX  C  11   0.01159     0.03454    -0.07170     0.02680    -0.11819     0.06012
 PY  C  11  -0.02520    -0.03340    -0.06061     0.01345    -0.05571    -0.00245
 PZ  C  11   0.12453    -0.04160    -0.01177    -0.15386    -0.01039     0.08385
  
  S  H  12   0.06931     0.14068     0.08730     0.02106    -0.04324     0.13826
  
  S  C  13   0.09977     0.21108     0.07983    -0.11729    -0.21416    -0.19977
 PX  C  13  -0.00155     0.00690     0.08702    -0.02117     0.11103    -0.04135
 PY  C  13  -0.01520    -0.06063     0.01695    -0.00891     0.08766     0.01153
 PZ  C  13  -0.11512     0.10433     0.06664     0.15401     0.02517    -0.05027
  
  S  H  14   0.06969     0.10727    -0.09153     0.03649    -0.04229     0.12280
  
  S  H  15  -0.03501    -0.06110     0.12682    -0.04293    -0.16751     0.01282
  
  S  H  16   0.03684     0.07199    -0.12950     0.06521     0.12451     0.02155
  
  S  H  17  -0.06541    -0.05437     0.15346     0.03026    -0.10199     0.11178
  
  S  H  18   0.02800     0.05508    -0.11603     0.01091     0.10103    -0.12511
  
  S  H  19  -0.06443    -0.12303     0.09060    -0.01090     0.14550     0.06410
  
  S  H  20  -0.05496    -0.11411    -0.04763     0.06572     0.12146     0.07755
  
  S  C  21  -0.07562    -0.17184    -0.22664     0.03342    -0.24106    -0.13187
 PX  C  21   0.02196     0.06947     0.05203    -0.00192     0.01301     0.05430
 PY  C  21  -0.00923    -0.00224    -0.02261     0.00280    -0.03778     0.01906
 PZ  C  21  -0.22135     0.11412    -0.07075    -0.24736     0.00396     0.08990
  
  S  C  22   0.03024     0.12892     0.17919    -0.06994     0.24022     0.03980
 PX  C  22   0.00309    -0.02861    -0.02076     0.02046    -0.00673     0.01824
 PY  C  22   0.00926    -0.02120    -0.00431    -0.01101    -0.01300    -0.09383
 PZ  C  22   0.30552    -0.11701     0.10259     0.22995     0.02631    -0.06185
  
  S  C  23  -0.05238    -0.10423    -0.15914     0.09549    -0.13595     0.18184
 PX  C  23  -0.00071     0.03254     0.01686    -0.03402    -0.03383    -0.08345
 PY  C  23  -0.00966     0.02886     0.02942    -0.02090     0.05494     0.03312
 PZ  C  23  -0.29932     0.10869    -0.08743    -0.23303     0.00098     0.04633
  
  S  C  24   0.07862     0.15208     0.19828    -0.12077     0.07544    -0.27977
 PX  C  24  -0.00177    -0.02756    -0.00622     0.01642     0.03677     0.01585
 PY  C  24  -0.00990    -0.05017    -0.03502     0.03794     0.00848     0.03431
 PZ  C  24   0.22429    -0.06347     0.09142     0.24010    -0.00106    -0.05397
  
  S  H  25   0.03946     0.08677     0.12409    -0.03064     0.13309     0.04630
  
  S  H  26  -0.01957    -0.08787    -0.11944     0.04214    -0.16443    -0.04336
  
  S  H  27   0.03290     0.06165     0.09328    -0.05932     0.07472    -0.11982
  
  S  H  28  -0.04575    -0.08592    -0.12830     0.06581    -0.07150     0.15503
  
  S  C  29   0.12477     0.24354     0.27340    -0.01521     0.17321     0.13077
 PX  C  29  -0.01175    -0.02335     0.02244     0.01093     0.08959     0.03733
 PY  C  29   0.00420     0.00428     0.04845    -0.06335     0.01959    -0.16559
 PZ  C  29   0.03375    -0.06439     0.03540     0.30115    -0.02495    -0.13881
  
  S  C  30  -0.10572    -0.21729    -0.22716     0.13832    -0.02616     0.22538
 PX  C  30  -0.00720    -0.00269    -0.07286    -0.01579    -0.11747    -0.02173
 PY  C  30   0.00783     0.02559     0.01304     0.02075     0.02457     0.13065
 PZ  C  30  -0.06089    -0.02537    -0.11583    -0.28909    -0.01131     0.10846




    ROOT NO.   55          56          57          58          59          60

             3.56573     3.67586     3.80349     3.89770     4.20355     4.22641
  
  
  S  C   1  -0.03523    -0.35883     0.03116     0.21241    -0.01062    -0.14125
 PX  C   1  -0.03203     0.12472    -0.06782     0.05650    -0.04426    -0.10499
 PY  C   1   0.00891    -0.06973     0.03814    -0.05211     0.00292     0.05599
 PZ  C   1   0.13246    -0.00392    -0.00552     0.03501    -0.01192    -0.02714
  
  S  C   2   0.08350    -0.02153     0.12641    -0.23227     0.11399     0.30755
 PX  C   2   0.01969    -0.18628     0.05907     0.03359     0.01196    -0.00325
 PY  C   2  -0.00039    -0.07251     0.02767     0.01521    -0.02598    -0.05964
 PZ  C   2  -0.17182    -0.01514     0.00756    -0.02782     0.01411     0.02322
  
  S  C   3  -0.06051     0.31516    -0.17642     0.06555     0.03987    -0.02247
 PX  C   3   0.00937    -0.01182     0.02144     0.05153     0.13299     0.12985
 PY  C   3   0.02223     0.08227     0.03201    -0.17589     0.00548     0.12746
 PZ  C   3   0.29336     0.02415    -0.00655     0.04795    -0.01249    -0.02343
  
  S  C   4  -0.00819    -0.27830     0.04026     0.26178     0.06420    -0.06014
 PX  C   4   0.03712    -0.10387     0.03976    -0.08084     0.05752     0.14673
 PY  C   4  -0.01367     0.08240    -0.09712     0.07589     0.09072     0.04359
 PZ  C   4  -0.29180    -0.01711     0.00842    -0.06777     0.01724     0.04834
  
  S  C   5   0.06665    -0.08414     0.07546    -0.25500     0.08350     0.29135
 PX  C   5  -0.01741     0.17957    -0.04478    -0.07572    -0.02005    -0.02033
 PY  C   5   0.01234     0.09413    -0.01841    -0.04002     0.01386     0.04534
 PZ  C   5   0.15728     0.03232    -0.02113     0.07830    -0.02813    -0.07942
  
  S  C   6  -0.01803     0.38247    -0.12666     0.04175    -0.01607    -0.08740
 PX  C   6   0.00468     0.01195     0.00215     0.00146    -0.02086    -0.02111
 PY  C   6  -0.02571    -0.10115    -0.01038     0.14289    -0.02682    -0.13270
 PZ  C   6  -0.12981     0.00414     0.00341    -0.03663     0.00866     0.02341
  
  S  C   7   0.03340    -0.12618     0.02886    -0.16539    -0.28894    -0.22072
 PX  C   7  -0.02558     0.12464    -0.09280    -0.00865    -0.02332    -0.06661
 PY  C   7   0.00292     0.05515    -0.05456     0.00273     0.05839     0.01322
 PZ  C   7  -0.26167    -0.03385     0.00730    -0.06047    -0.01729    -0.00221
  
  S  C   8   0.00789     0.11011     0.12994    -0.16225    -0.26383    -0.20083
 PX  C   8   0.00066    -0.08895     0.05372     0.10072     0.05879    -0.03878
 PY  C   8  -0.01122    -0.06852     0.03710     0.04884    -0.04548    -0.07086
 PZ  C   8   0.26272     0.02184    -0.00598     0.04323    -0.00942    -0.03355
  
  S  C   9  -0.01913     0.09061    -0.18288    -0.05926    -0.04650     0.13886
 PX  C   9   0.00876     0.06709     0.04840    -0.10209    -0.15950    -0.07025
 PY  C   9   0.03519    -0.01532     0.07596     0.03273    -0.08963     0.11912
 PZ  C   9  -0.33462    -0.03561     0.02061    -0.04280    -0.01416     0.02321
  
  S  C  10   0.02818    -0.11767     0.15164     0.14288     0.01316     0.13631
 PX  C  10   0.01460    -0.06507    -0.03060    -0.07209    -0.17095     0.05966
 PY  C  10  -0.00643    -0.06198     0.06986    -0.03997    -0.06362    -0.12846
 PZ  C  10   0.33601     0.03904    -0.00536     0.05190    -0.00314    -0.02069
  
  S  C  11  -0.05855     0.15109     0.04009     0.05854     0.30331    -0.17046
 PX  C  11  -0.00080    -0.01193     0.09328     0.11905     0.03503     0.02993
 PY  C  11   0.00599     0.00447     0.04626     0.06613    -0.07394     0.06257
 PZ  C  11  -0.23314    -0.03848    -0.00469    -0.04409    -0.02131     0.01644
  
  S  H  12   0.03968    -0.10762    -0.03800    -0.02445    -0.29200     0.14295
  
  S  C  13  -0.03298    -0.08222    -0.12509     0.04286     0.32275    -0.17086
 PX  C  13  -0.01016     0.00929    -0.16119    -0.00219    -0.03528     0.04565
 PY  C  13  -0.03347     0.01730    -0.06605    -0.00036     0.03573     0.00641
 PZ  C  13   0.24181     0.02021    -0.01666     0.02503     0.03272    -0.01959
  
  S  H  14  -0.01988     0.09448    -0.01126     0.09899     0.27109     0.18821
  
  S  H  15   0.01925     0.24303    -0.01977    -0.15243    -0.01929     0.07217
  
  S  H  16  -0.05802     0.02359    -0.08085     0.13065    -0.11761    -0.25039
  
  S  H  17  -0.05216     0.06372    -0.04208     0.15721    -0.09487    -0.24740
  
  S  H  18   0.00625    -0.22642     0.08095    -0.03551    -0.01844     0.02565
  
  S  H  19   0.00067    -0.08058    -0.09280     0.09332     0.25597     0.17825
  
  S  H  20   0.02456     0.06596     0.08413    -0.01631    -0.28659     0.13026
  
  S  C  21  -0.00221    -0.02210    -0.13756     0.25230    -0.16310     0.19916
 PX  C  21   0.01633    -0.06360    -0.15994    -0.06976    -0.03470     0.02529
 PY  C  21   0.00979    -0.04970    -0.11478    -0.05266     0.01668    -0.02112
 PZ  C  21  -0.14663    -0.02602    -0.00923    -0.03119    -0.01136     0.00367
  
  S  C  22  -0.05173     0.14777     0.41261    -0.00865     0.06120    -0.07593
 PX  C  22   0.00900    -0.00004     0.02975    -0.01253    -0.00968    -0.00465
 PY  C  22  -0.02233     0.05649     0.06344     0.15066    -0.05524     0.08472
 PZ  C  22   0.11398     0.03229     0.05215     0.00834     0.02237    -0.01980
  
  S  C  23   0.07903    -0.17522    -0.27049    -0.24862     0.03666    -0.09107
 PX  C  23  -0.01365    -0.01124    -0.12641     0.07679    -0.07143     0.08070
 PY  C  23  -0.01202     0.02464     0.09854    -0.03541     0.02208    -0.03802
 PZ  C  23  -0.11888    -0.00415     0.00883     0.00745    -0.01586     0.01484
  
  S  C  24  -0.07299     0.09611    -0.08332     0.27571    -0.16319     0.20072
 PX  C  24  -0.00512     0.05534     0.16530     0.04387     0.01374     0.00016
 PY  C  24   0.00894     0.03005     0.10065     0.05022    -0.03129     0.04652
 PZ  C  24   0.14677     0.00435    -0.01597    -0.00547     0.02760    -0.02180
  
  S  H  25  -0.00621     0.01699     0.07162    -0.15916     0.15075    -0.16016
  
  S  H  26   0.03137    -0.09631    -0.28406     0.01035    -0.01444     0.03731
  
  S  H  27  -0.04932     0.10638     0.16170     0.15364     0.00204     0.04227
  
  S  H  28   0.04405    -0.06782     0.04680    -0.18896     0.15752    -0.17299
  
  S  C  29   0.03694    -0.09498    -0.21941    -0.23691    -0.03826    -0.03220
 PX  C  29   0.00743     0.04228     0.13548    -0.09427     0.09724    -0.10731
 PY  C  29  -0.03561     0.02613    -0.12150     0.02624     0.11121    -0.05199
 PZ  C  29   0.24892     0.05151     0.03712     0.08352     0.02723    -0.00611
  
  S  C  30   0.04812     0.04461     0.35776    -0.01338    -0.04395     0.00415
 PX  C  30  -0.00696    -0.02821     0.02524    -0.00760     0.14551    -0.09461
 PY  C  30   0.02759    -0.06255    -0.03613    -0.17377     0.03547    -0.08021
 PZ  C  30  -0.25485    -0.02314     0.03103    -0.02888    -0.04371     0.02253




    ROOT NO.   61          62          63          64          65          66

             5.20564     5.45279     5.49919     5.72932     6.15576     6.44669
  
  
  S  C   1  -0.11979    -0.06688    -0.27033     0.05827     0.05021    -0.01767
 PX  C   1   0.12760     0.03687     0.07459    -0.14353    -0.10851     0.03704
 PY  C   1   0.02261     0.05370     0.29065     0.02953    -0.00720     0.00648
 PZ  C   1   0.00250     0.00191     0.00755    -0.00357    -0.00443     0.00220
  
  S  C   2  -0.17324    -0.04436    -0.08875     0.17453     0.12539    -0.04904
 PX  C   2  -0.10303    -0.04736    -0.17989     0.06227     0.05232    -0.02406
 PY  C   2   0.05659     0.03130     0.09872    -0.12380    -0.16501     0.09600
 PZ  C   2  -0.00684    -0.00488    -0.02136     0.00315     0.00532    -0.00376
  
  S  C   3   0.04570    -0.00539    -0.00102     0.07483     0.14150    -0.08265
 PX  C   3  -0.15847    -0.01828     0.04096     0.07026    -0.07761     0.08793
 PY  C   3  -0.04949    -0.02219    -0.06990     0.12389     0.17575    -0.11740
 PZ  C   3  -0.00252     0.00249     0.01240     0.00364     0.00253    -0.00265
  
  S  C   4  -0.04659     0.00740     0.05020    -0.09091    -0.18931     0.12807
 PX  C   4   0.11441     0.02010    -0.02025    -0.13601    -0.08592     0.02899
 PY  C   4   0.10968     0.01081     0.03135     0.01386     0.14205    -0.10596
 PZ  C   4   0.01543     0.00042    -0.00892    -0.00879     0.00335    -0.00462
  
  S  C   5   0.15130     0.01946    -0.07078    -0.19247    -0.12962     0.04549
 PX  C   5   0.01336    -0.01669    -0.06428     0.07876     0.15954    -0.10421
 PY  C   5   0.07402    -0.01463    -0.20059    -0.17968    -0.16596     0.08581
 PZ  C   5  -0.02911    -0.00321     0.01763     0.04284     0.03514    -0.01592
  
  S  C   6   0.05715    -0.04333    -0.31353    -0.11998    -0.05181     0.01330
 PX  C   6  -0.02836     0.04176     0.29361     0.11871     0.07087    -0.02407
 PY  C   6  -0.11302    -0.03709    -0.08431     0.12235     0.09609    -0.03551
 PZ  C   6   0.00466     0.00084     0.00198    -0.00063     0.00099    -0.00047
  
  S  C   7   0.22485     0.02321    -0.06729    -0.07995     0.10050    -0.10672
 PX  C   7   0.05932    -0.01296    -0.05515     0.04047     0.11031    -0.06590
 PY  C   7  -0.08755    -0.03012     0.02526     0.10877    -0.10060     0.24933
 PZ  C   7   0.01475    -0.00127    -0.00908    -0.00005     0.00350     0.00684
  
  S  C   8  -0.22901    -0.02690    -0.02958     0.07413    -0.09493     0.09750
 PX  C   8   0.04518     0.00168     0.00473    -0.10622     0.02910    -0.10314
 PY  C   8  -0.11457    -0.01363    -0.02485    -0.00219    -0.19725     0.20993
 PZ  C   8  -0.01282    -0.00158     0.00200     0.00583    -0.00847     0.01096
  
  S  C   9  -0.02080     0.00238     0.00354     0.14229    -0.03335     0.13571
 PX  C   9  -0.17781    -0.01870    -0.00544     0.04687    -0.08613     0.08734
 PY  C   9  -0.08953     0.03133     0.03158    -0.11857    -0.03241    -0.20340
 PZ  C   9  -0.00675     0.00198     0.00029    -0.01145    -0.00239    -0.01223
  
  S  C  10   0.00558     0.04313     0.03488    -0.15088     0.00759    -0.20720
 PX  C  10   0.15210     0.02067    -0.03012     0.07041     0.06042     0.07370
[...]
  S   H   18    0.0920   -0.0318   -0.0335   -0.0465    0.0238   -0.0146    0.3034   -0.0796
  S   H   19    0.1917   -0.2215    0.2341    0.1858    0.0880   -0.0094    0.0468    0.1657
  S   H   20   -0.1298   -0.2437    0.2941   -0.0609    0.1569    0.0551   -0.0101   -0.2178
  S   C   21   -0.1427   -0.0752   -0.0446    0.0328    0.0092    0.0784    0.0048   -0.0060
  Px  C   21   -0.1119   -0.1029   -0.2242    0.2647    0.1474   -0.0956   -0.0026    0.1155
  Py  C   21    0.1403    0.0958    0.0820   -0.0989   -0.0514    0.3127    0.0184    0.0304
  Pz  C   21    0.0035    0.0014    0.0058   -0.0082   -0.0058   -0.0162   -0.0013   -0.0122
  S   C   22   -0.0526   -0.0192    0.0447   -0.0436   -0.0215   -0.1374   -0.0089   -0.0590
  Px  C   22   -0.0643   -0.0343    0.0536   -0.0537   -0.0210    0.5024    0.0325    0.1688
  Py  C   22   -0.1027   -0.0475   -0.0497    0.0489    0.0242   -0.0322   -0.0015   -0.0392
  Pz  C   22    0.0028    0.0029    0.0058   -0.0052   -0.0026   -0.0405   -0.0026   -0.0131
  S   C   23    0.0718    0.0277    0.0539   -0.0502   -0.0217    0.0618    0.0039    0.0146
  Px  C   23    0.1239    0.0526   -0.0039    0.0088    0.0145   -0.1700   -0.0125    0.0390
  Py  C   23    0.0092    0.0052    0.0670   -0.0658   -0.0272   -0.4662   -0.0307   -0.1374
  Pz  C   23   -0.0104   -0.0046   -0.0073    0.0073    0.0029    0.0243    0.0017    0.0011
  S   C   24    0.1280    0.0536   -0.0169    0.0043   -0.0039   -0.0600   -0.0040    0.0458
  Px  C   24   -0.0691   -0.0327   -0.0398    0.0485    0.0329   -0.1351   -0.0094    0.0281
  Py  C   24    0.2149    0.1490   -0.2391    0.2330    0.0936    0.1971    0.0104   -0.1724
  Pz  C   24   -0.0129   -0.0077    0.0124   -0.0144   -0.0080   -0.0049   -0.0002    0.0054
  S   H   25    0.2106    0.1412    0.1769   -0.1995   -0.1045    0.1863    0.0097   -0.0288
  S   H   26    0.0812    0.0410   -0.0443    0.0405    0.0139   -0.2932   -0.0191   -0.0991
  S   H   27   -0.1080   -0.0467   -0.0545    0.0486    0.0148    0.3236    0.0220    0.0667
  S   H   28   -0.2353   -0.1335    0.1531   -0.1404   -0.0487   -0.1360   -0.0076    0.0975
  S   C   29   -0.1292   -0.1135   -0.1593    0.2134    0.1403    0.0234    0.0013    0.0302
  Px  C   29    0.1212    0.0700   -0.0209    0.0648    0.0612   -0.1110   -0.0024    0.1326
  Py  C   29   -0.1532   -0.1607    0.0824   -0.1093   -0.0845   -0.0361   -0.0039    0.0702
  Pz  C   29    0.0164    0.0166    0.0209   -0.0308   -0.0222   -0.0017   -0.0002   -0.0066
  S   C   30    0.1770    0.1353   -0.1671    0.1894    0.1075   -0.0080    0.0004    0.0138
  Px  C   30    0.0622    0.0979    0.0041   -0.0370   -0.0485    0.0735    0.0036   -0.2274
  Py  C   30   -0.1359   -0.1027   -0.0630    0.1302    0.1123    0.0878    0.0016   -0.0932
  Pz  C   30    0.0170    0.0093    0.0010    0.0091    0.0131   -0.0072   -0.0002    0.0104


   Root No.      73        74        75        76        77        78        79        80

                25 a"     74 ????   31 a'     26 a"     27 a"     32 a'     33 a'     28 a"  

                 9.347     9.568    10.087    10.691    10.901    11.707    11.805    12.158
  
  S   C    1    0.0528   -0.0707   -0.0375    0.0796   -0.0384    0.0205    0.0025    0.0194
  Px  C    1    0.1972   -0.2105    0.0863    0.2092    0.1427   -0.1461   -0.1397    0.2022
  Py  C    1    0.0455   -0.1025   -0.2129    0.0822   -0.2233    0.1591    0.1091   -0.1002
  Pz  C    1    0.0110   -0.0129   -0.0013    0.0125    0.0011   -0.0028   -0.0053    0.0096
  S   C    2   -0.0950    0.0785   -0.0683   -0.0402   -0.0790    0.0638    0.0178   -0.0048
  Px  C    2    0.1859   -0.2108    0.0286    0.2398    0.0602   -0.0771   -0.1291    0.2250
  Py  C    2   -0.2569    0.1392   -0.1917    0.0520   -0.1677    0.1167   -0.0540    0.1447
  Pz  C    2    0.0158   -0.0159    0.0070    0.0143    0.0092   -0.0083   -0.0071    0.0100
  S   C    3   -0.0237    0.0469   -0.0108   -0.0634   -0.0285    0.0274    0.0096   -0.0101
  Px  C    3   -0.2133    0.0883   -0.2289    0.0847   -0.0423   -0.2122    0.0935   -0.1396
  Py  C    3   -0.0848    0.0157   -0.1138    0.0906   -0.1959    0.2671   -0.1804    0.3640
  Pz  C    3    0.0036   -0.0022    0.0023    0.0002   -0.0055    0.0149   -0.0096    0.0160
  S   C    4   -0.0297    0.0396   -0.0043   -0.0582    0.0334   -0.0330   -0.0135    0.0025
  Px  C    4   -0.1269    0.1177    0.2635    0.0849    0.2125   -0.1088    0.1157   -0.1817
  Py  C    4   -0.0884    0.1290    0.1280   -0.0392   -0.0551    0.3155   -0.1727    0.3337
  Pz  C    4   -0.0018    0.0042    0.0084    0.0006   -0.0004    0.0117   -0.0048    0.0113
  S   C    5   -0.0803    0.0788    0.0667   -0.0412    0.0942   -0.0738   -0.0193    0.0021
  Px  C    5   -0.0627    0.0451    0.1864    0.1402    0.1176   -0.0481    0.1352   -0.1918
  Py  C    5    0.2702   -0.2505   -0.0833    0.1800   -0.1675    0.1532    0.0994   -0.0887
  Pz  C    5    0.0019   -0.0034    0.0075    0.0135   -0.0004    0.0036    0.0113   -0.0137
  S   C    6    0.0653   -0.0534    0.0549    0.0640    0.0325   -0.0121    0.0051   -0.0046
  Px  C    6    0.2116   -0.1501    0.1755    0.1504    0.0943   -0.0348    0.0037    0.0010
  Py  C    6    0.0897   -0.1238   -0.1552    0.1462   -0.2546    0.2266    0.1926   -0.1991
  Pz  C    6    0.0235   -0.0203    0.0056    0.0205   -0.0056    0.0087    0.0106   -0.0109
  S   C    7    0.0886    0.0029    0.0593   -0.0883   -0.0320    0.0870    0.0241    0.0120
  Px  C    7   -0.1583    0.1089   -0.1578   -0.0083   -0.0570   -0.1364    0.1337   -0.1540
  Py  C    7    0.2551    0.0575    0.0713   -0.2455   -0.1053    0.1271    0.1347   -0.0282
  Pz  C    7    0.0249    0.0038    0.0111   -0.0241   -0.0098    0.0175    0.0108   -0.0008
  S   C    8    0.0570   -0.0469   -0.0903   -0.0632    0.0235   -0.0883   -0.0278   -0.0289
  Px  C    8    0.0648    0.0396   -0.0403   -0.2102    0.1405   -0.0457   -0.1875    0.1056
  Py  C    8   -0.1884    0.1591    0.2157    0.0793    0.0068    0.1776   -0.0229    0.1397
  Pz  C    8   -0.0058    0.0061    0.0060   -0.0014    0.0031    0.0047   -0.0038    0.0059
  S   C    9   -0.0004   -0.0370   -0.0352    0.0110   -0.0149   -0.0404   -0.0191   -0.0067
  Px  C    9    0.0952   -0.0110   -0.1100   -0.2442    0.1823   -0.1285   -0.1961    0.0725
  Py  C    9    0.0371   -0.0575    0.0750   -0.1464    0.1367    0.1703    0.3658    0.0094
  Pz  C    9    0.0035   -0.0018    0.0024   -0.0092    0.0069    0.0049    0.0130    0.0032
  S   C   10   -0.0094   -0.0382    0.0425    0.0047    0.0053    0.0388    0.0096   -0.0014
  Px  C   10    0.1921    0.0716   -0.0810   -0.2369   -0.2160   -0.0854   -0.2054   -0.0726
  Py  C   10    0.0853    0.0790    0.0820   -0.1511   -0.0541    0.1967    0.3687   -0.0615
  Pz  C   10    0.0157    0.0094    0.0016   -0.0228   -0.0135    0.0085    0.0181   -0.0084
  S   C   11   -0.0729   -0.0616    0.0814    0.0559    0.0401    0.0761    0.0115   -0.0136
  Px  C   11    0.1221    0.0031   -0.0121   -0.2020   -0.1611   -0.0117   -0.2105   -0.0930
  Py  C   11   -0.1984   -0.1954    0.1974    0.0559    0.0256    0.1733   -0.0712   -0.1030
  Pz  C   11   -0.0043   -0.0068    0.0084   -0.0047   -0.0067    0.0047   -0.0104   -0.0071
  S   H   12   -0.1303   -0.0994    0.0983    0.0669    0.0586    0.0967    0.0169   -0.0325
  S   C   13   -0.0429   -0.0337   -0.0441    0.0751   -0.0578   -0.0771   -0.0090    0.0123
  Px  C   13   -0.0931   -0.1740   -0.1277   -0.0282    0.0177   -0.1581    0.1572    0.1029
  Py  C   13    0.1426    0.0322    0.0504   -0.2355    0.1595    0.1046    0.1192   -0.0011
  Pz  C   13    0.0136    0.0092    0.0115   -0.0169    0.0127    0.0180    0.0010   -0.0047
  S   H   14    0.1707    0.0019    0.0775   -0.1115   -0.0392    0.1048    0.0344    0.0316
  S   H   15    0.0806   -0.1157   -0.0829    0.1030   -0.0689    0.0364    0.0104    0.0124
  S   H   16   -0.1834    0.1229   -0.1128   -0.0288   -0.1085    0.0868    0.0052    0.0194
  S   H   17   -0.1511    0.1350    0.0930   -0.0482    0.1161   -0.0930   -0.0115   -0.0114
  S   H   18    0.1280   -0.0898    0.1118    0.0898    0.0625   -0.0271    0.0004    0.0018
  S   H   19    0.1100   -0.0652   -0.1131   -0.0865    0.0379   -0.1048   -0.0393   -0.0429
  S   H   20   -0.0972   -0.0573   -0.0599    0.1075   -0.0822   -0.1007   -0.0244    0.0293
  S   C   21    0.0489    0.0782   -0.0812    0.0466    0.1013    0.0437    0.0273    0.0252
  Px  C   21   -0.0723   -0.0430    0.1953    0.1211   -0.1273   -0.0547    0.1201    0.1565
  Py  C   21    0.1530    0.2547   -0.1353    0.1781    0.1926    0.0898    0.1047    0.1226
  Pz  C   21   -0.0051   -0.0148   -0.0044   -0.0218   -0.0072   -0.0044   -0.0177   -0.0209
  S   C   22   -0.0291   -0.0678   -0.0488   -0.0690    0.0303    0.0049    0.0002   -0.0026
  Px  C   22    0.0868    0.1838    0.1174    0.1488   -0.0680   -0.0109   -0.0082   -0.0062
  Py  C   22    0.0627    0.1116   -0.1857    0.1340    0.2734    0.1166    0.1988    0.2297
  Pz  C   22   -0.0105   -0.0217   -0.0030   -0.0205   -0.0053   -0.0042   -0.0079   -0.0097
  S   C   23   -0.0331   -0.0621    0.0479   -0.0754   -0.0475   -0.0210    0.0023    0.0120
  Px  C   23    0.1371    0.2644    0.0492    0.2437   -0.1247   -0.0456   -0.1739   -0.2213
  Py  C   23    0.0778    0.1061   -0.2325    0.0894    0.2309    0.0828    0.1092    0.1173
  Pz  C   23   -0.0107   -0.0189    0.0023   -0.0157    0.0025    0.0007    0.0087    0.0112
  S   C   24    0.0647    0.1121    0.0550    0.0503   -0.0775   -0.0400   -0.0175   -0.0152
  Px  C   24    0.1284    0.2500   -0.0069    0.2663   -0.0361    0.0049   -0.1654   -0.2256
  Py  C   24   -0.1678   -0.2419   -0.1667    0.0270    0.1790    0.1124   -0.0797   -0.1140
  Pz  C   24    0.0024    0.0008    0.0059   -0.0107   -0.0050   -0.0041    0.0082    0.0115
  S   H   25    0.0970    0.1324   -0.1332    0.0425    0.1402    0.0679    0.0101    0.0072
  S   H   26   -0.0535   -0.1131   -0.0641   -0.0910    0.0344    0.0056    0.0011    0.0003
  S   H   27   -0.0853   -0.1408    0.1092   -0.1224   -0.0817   -0.0299   -0.0003    0.0092
  S   H   28    0.1203    0.1908    0.0853    0.0600   -0.1053   -0.0591   -0.0076   -0.0071
  S   C   29    0.0093    0.0421   -0.0087    0.0629    0.0558    0.0355    0.0128    0.0076
  Px  C   29   -0.1014   -0.0939    0.2750    0.0676   -0.2290   -0.0964    0.1037    0.1412
  Py  C   29   -0.0921   -0.1459    0.1100   -0.0433    0.1141    0.3135   -0.2369   -0.2405
  Pz  C   29    0.0020   -0.0027   -0.0046   -0.0091   -0.0036   -0.0055    0.0014    0.0007
  S   C   30    0.0236    0.0579    0.0146    0.0587   -0.0239   -0.0038   -0.0148   -0.0144
  Px  C   30   -0.1194   -0.1802   -0.1812    0.0624   -0.0281   -0.2199    0.1201    0.0921
  Py  C   30   -0.0828   -0.0934   -0.1380    0.0868    0.2621    0.2863   -0.2374   -0.2852
  Pz  C   30    0.0084    0.0138    0.0130   -0.0025   -0.0158   -0.0107    0.0089    0.0128


   Root No.      81        82        83        84

                34 a'     35 a'     29 a"     30 a"  

                12.615    12.763    13.136    14.447
  
  S   C    1   -0.0569    0.0451   -0.0047    0.0439
  Px  C    1   -0.0614    0.2736   -0.1606    0.1061
  Py  C    1   -0.1042   -0.0871    0.1072    0.0308
  Pz  C    1   -0.0052    0.0132   -0.0063    0.0065
  S   C    2   -0.0122   -0.0105    0.0186    0.0231
  Px  C    2   -0.1075    0.3071   -0.1541    0.1548
  Py  C    2   -0.0951    0.1524   -0.0315    0.1284
  Pz  C    2   -0.0049    0.0139   -0.0072    0.0057
  S   C    3    0.0114   -0.0070   -0.0062    0.0218
  Px  C    3   -0.1967    0.2156   -0.2211    0.2353
  Py  C    3   -0.0372    0.1911    0.0192    0.1071
  Pz  C    3    0.0046   -0.0022    0.0088   -0.0038
  S   C    4    0.0103   -0.0036    0.0076    0.0252
  Px  C    4   -0.2942   -0.0474    0.1652    0.2163
  Py  C    4   -0.0672    0.0404    0.2247    0.1299
  Pz  C    4   -0.0059    0.0022    0.0097    0.0075
  S   C    5   -0.0007    0.0194   -0.0157    0.0244
  Px  C    5   -0.3037   -0.0606    0.1661    0.1843
  Py  C    5   -0.1621   -0.0796    0.1397    0.0586
  Pz  C    5   -0.0207   -0.0066    0.0132    0.0099
  S   C    6   -0.0617    0.0154    0.0200    0.0400
  Px  C    6   -0.1232    0.0443    0.0300    0.0799
  Py  C    6   -0.2227   -0.1694    0.2227    0.0737
  Pz  C    6   -0.0218   -0.0056    0.0142    0.0100
  S   C    7    0.0612   -0.0102   -0.0008    0.0093
  Px  C    7   -0.1492    0.2058   -0.2293    0.2532
  Py  C    7    0.0635    0.1168   -0.1161    0.1496
  Pz  C    7    0.0100    0.0062   -0.0073    0.0101
  S   C    8    0.0464   -0.0359   -0.0136    0.0041
  Px  C    8   -0.1303   -0.1048    0.2638    0.2627
  Py  C    8   -0.1364    0.0465    0.1572    0.1211
  Pz  C    8   -0.0058   -0.0001    0.0092    0.0082
  S   C    9    0.0525   -0.0237   -0.0058   -0.0039
  Px  C    9   -0.0591   -0.1256    0.2530    0.2671
  Py  C    9    0.1984    0.2366    0.0804    0.1341
  Pz  C    9    0.0068    0.0080    0.0079    0.0088
  S   C   10    0.0493   -0.0318   -0.0028   -0.0092
  Px  C   10   -0.0867   -0.1164   -0.1926    0.2663
  Py  C   10    0.0965    0.2906   -0.1418    0.1412
  Pz  C   10    0.0023    0.0156   -0.0199    0.0216
  S   C   11    0.0548   -0.0312   -0.0273   -0.0006
  Px  C   11   -0.0297   -0.1697   -0.2163    0.2640
  Py  C   11    0.1059   -0.1133   -0.1671    0.1316
  Pz  C   11    0.0010   -0.0096   -0.0143    0.0135
  S   H   12    0.0514   -0.0025   -0.0281   -0.0001
  S   C   13    0.0568   -0.0334    0.0126   -0.0025
  Px  C   13    0.2813    0.0179    0.2367    0.2501
  Py  C   13    0.0523    0.1096    0.0924    0.1404
  Pz  C   13   -0.0100    0.0059   -0.0054   -0.0005
  S   H   14    0.0631    0.0129    0.0034    0.0068
  S   H   15   -0.0655    0.0355    0.0064    0.0411
  S   H   16   -0.0192   -0.0024    0.0256    0.0203
  S   H   17    0.0018    0.0209   -0.0274    0.0141
  S   H   18   -0.0669    0.0289    0.0112    0.0415
  S   H   19    0.0182   -0.0495   -0.0059    0.0098
  S   H   20    0.0317   -0.0507    0.0138   -0.0075
  S   C   21   -0.0179   -0.0219   -0.0192   -0.0214
  Px  C   21    0.1448   -0.2851   -0.1517    0.1931
  Py  C   21    0.0286   -0.2029   -0.1401    0.0686
  Pz  C   21   -0.0114    0.0352    0.0216   -0.0174
  S   C   22   -0.0543    0.0443    0.0191   -0.0422
  Px  C   22    0.1097   -0.0702   -0.0242    0.0759
  Py  C   22   -0.0113   -0.3066   -0.2166    0.0854
  Pz  C   22   -0.0104    0.0215    0.0129   -0.0117
  S   C   23   -0.0654    0.0224   -0.0015   -0.0406
  Px  C   23    0.2745    0.1250    0.1554    0.0961
  Py  C   23   -0.0071   -0.1464   -0.1003    0.0371
  Pz  C   23   -0.0149   -0.0051   -0.0070   -0.0056
  S   C   24    0.0105    0.0207    0.0200   -0.0203
  Px  C   24    0.3177    0.0998    0.1447    0.1402
  Py  C   24    0.1540    0.0077    0.0238    0.1133
  Pz  C   24   -0.0173   -0.0028   -0.0053   -0.0099
  S   H   25   -0.0294   -0.0130   -0.0259   -0.0192
  S   H   26   -0.0620    0.0413    0.0137   -0.0402
  S   H   27   -0.0754    0.0349    0.0052   -0.0426
  S   H   28    0.0181    0.0232    0.0308   -0.0108
  S   C   29    0.0057   -0.0067    0.0013   -0.0301
  Px  C   29    0.1516   -0.2754   -0.1527    0.2279
  Py  C   29    0.0333   -0.0808   -0.2321    0.1331
  Pz  C   29   -0.0026    0.0053    0.0043   -0.0005
  S   C   30    0.0013   -0.0020   -0.0148   -0.0286
  Px  C   30    0.3102   -0.0137    0.2261    0.2240
  Py  C   30    0.1337    0.0564   -0.0410    0.0887
  Pz  C   30   -0.0169   -0.0033   -0.0056   -0.0122


              NET ATOMIC CHARGES AND DIPOLE CONTRIBUTIONS

  ATOM NO.   TYPE          CHARGE      No. of ELECS.   s-Pop       p-Pop       
    1          C          -0.032610        4.0326     1.09734     2.93527
    2          C          -0.025359        4.0254     1.09511     2.93025
    3          C           0.011919        3.9881     1.06422     2.92386
    4          C           0.014200        3.9858     1.06336     2.92244
    5          C          -0.033324        4.0333     1.10032     2.93300
    6          C          -0.024154        4.0242     1.09774     2.92642
    7          C          -0.031484        4.0315     1.09672     2.93476
    8          C          -0.036456        4.0365     1.10002     2.93644
    9          C           0.010976        3.9890     1.06711     2.92192
   10          C           0.013531        3.9865     1.06220     2.92427
   11          C          -0.034810        4.0348     1.10795     2.92686
   12          H           0.019843        0.9802     0.98016
   13          C          -0.037401        4.0374     1.09860     2.93880
   14          H           0.026571        0.9734     0.97343
   15          H           0.029841        0.9702     0.97016
   16          H           0.019979        0.9800     0.98002
   17          H           0.025888        0.9741     0.97411
   18          H           0.021842        0.9782     0.97816
   19          H           0.025015        0.9750     0.97498
   20          H           0.028956        0.9710     0.97104
   21          C          -0.023760        4.0238     1.08809     2.93567
   22          C          -0.020742        4.0207     1.09827     2.92247
   23          C          -0.034727        4.0347     1.09246     2.94226
   24          C          -0.032770        4.0328     1.11103     2.92174
   25          H           0.020128        0.9799     0.97987
   26          H           0.020239        0.9798     0.97976
   27          H           0.032974        0.9670     0.96703
   28          H           0.021984        0.9780     0.97802
   29          C           0.014265        3.9857     1.06928     2.91645
   30          C           0.009447        3.9906     1.07327     2.91728
 DIPOLE           X         Y         Z       TOTAL
 POINT-CHG.    -0.030    -0.011    -0.021     0.039
 HYBRID        -0.033     0.053    -0.176     0.187
 SUM           -0.064     0.043    -0.197     0.211


          ATOMIC ORBITAL ELECTRON POPULATIONS

     Atom    s        px        py        pz   
    1  C   1.09734   0.98816   0.94425   1.00286
    2  C   1.09511   0.98618   0.94676   0.99732
    3  C   1.06422   0.97015   0.96600   0.98770
    4  C   1.06336   0.96827   0.97544   0.97873
    5  C   1.10032   0.97213   0.95117   1.00970
    6  C   1.09774   0.94965   0.98580   0.99097
    7  C   1.09672   0.97057   0.95187   1.01232
    8  C   1.10002   0.96120   0.95601   1.01922
    9  C   1.06711   0.96548   0.97129   0.98515
   10  C   1.06220   0.96356   0.97586   0.98486
   11  C   1.10795   0.96171   0.94792   1.01723
   12  H   0.98016
   13  C   1.09860   0.97593   0.94853   1.01434
   14  H   0.97343
   15  H   0.97016
   16  H   0.98002
   17  H   0.97411
   18  H   0.97816
   19  H   0.97498
   20  H   0.97104
   21  C   1.08809   0.95682   0.96665   1.01220
   22  C   1.09827   0.93962   0.99070   0.99215
   23  C   1.09246   0.98384   0.95749   1.00094
   24  C   1.11103   0.97078   0.95089   1.00007
   25  H   0.97987
   26  H   0.97976
   27  H   0.96703
   28  H   0.97802
   29  C   1.06928   0.95657   0.97564   0.98424
   30  C   1.07327   0.97471   0.96512   0.97746

 **********************
 *                    *
 * JOB ENDED NORMALLY *
 *                    *
 **********************



 TOTAL JOB TIME:             0.94 SECONDS

 == MOPAC DONE ==


          MOPAC Job: "./tetraceneTraj/tetracene_2333.mop" ended normally on Feb 15, 2023, at 11:41.

rm: cannot remove ./tetraceneTraj/tetracene_2333.cim: No such file or directory
rm: cannot remove ./tetraceneTraj/tetracene_2333.end: No such file or directory
rm: cannot remove ./tetraceneTraj/tetracene_2333.log: No such file or directory
rm: cannot remove ./tetraceneTraj/tetracene_2333.temp: No such file or directory
rm: cannot remove ./tetraceneTraj/tetracene_2333.ple: No such file or directory
rm: cannot remove ./tetraceneTraj/tetracene_2333.sts: No such file or directory
