 *******************************************************************************
 ** Site#:    0         For non-commercial use only    Version 20.173L 64BITS **
 *******************************************************************************
 ** Cite this program as: MOPAC2016, Version: 20.173L, James J. P. Stewart,   **
 ** Stewart Computational Chemistry, web-site: HTTP://OpenMOPAC.net.          **
 *******************************************************************************
 **                                                                           **
 **                                MOPAC2016                                  **
 **                                                                           **
 *******************************************************************************

                              INDO CALCULATION RESULTS

 *******************************************************************************
 *  CALCULATION DONE:                                Wed Feb 15 11:35:04 2023  *
 *  INDO       - The INDO Hamiltonian to be used
 *
 *
 *
 *                 CHARGE ON SYSTEM = 0
 *
 *
 *
 *  C.I.=(N,M) - 3 DOUBLY FILLED LEVELS USED IN A C.I. INVOLVING 6 M.O.'S
 *  T=         - A TIME OF 172800.0 SECONDS REQUESTED
 *  DUMP=N     - RESTART FILE WRITTEN EVERY 7200.0 SECONDS REQUESTED
 *  RELSCF     - DEFAULT SCF CRITERION MULTIPLIED BY 0.0000
 *              (DEFAULT SCF CRITERION = 0.00010)
 *  ALLVEC     - PRINT ALL EIGENVECTORS
 **********
 *  WARNING: Specified print options may not behave as expected with INDO
 **********
 *******************************************************************************
INDO C.I.=(6,3) AllVEC CHARGE=0 RELSCF=0.000001


   ATOM   CHEMICAL          X               Y               Z
  NUMBER   SYMBOL      (ANGSTROMS)     (ANGSTROMS)     (ANGSTROMS)
 
     1       C         18.46271563  *  19.51144933  *  22.36131174  *
     2       C         19.86290759  *  19.44017389  *  22.29858549  *
     3       C         20.67603945  *  20.64444216  *  22.43490830  *
     4       C         19.95703560  *  21.95261340  *  22.42193401  *
     5       C         18.52841396  *  21.95534586  *  22.33295059  *
     6       C         17.78416057  *  20.77598536  *  22.30311839  *
     7       C         22.08835798  *  20.62160974  *  22.54421657  *
     8       C         20.74005960  *  23.13585106  *  22.57618830  *
     9       C         22.13253659  *  23.09462464  *  22.58293525  *
    10       C         22.87774991  *  21.83621963  *  22.59537606  *
    11       C         24.33800352  *  21.81022948  *  22.65813131  *
    12       H         24.90326348  *  20.85357445  *  22.55086449  *
    13       C         22.90130472  *  24.37321478  *  22.54948164  *
    14       H         22.58225562  *  19.61477493  *  22.63918066  *
    15       H         17.87650970  *  18.63183992  *  22.22101075  *
    16       H         20.29861849  *  18.45000618  *  22.28151876  *
    17       H         18.09175599  *  22.95103436  *  22.26947684  *
    18       H         16.66706914  *  20.71138306  *  22.32290036  *
    19       H         20.21477220  *  24.12892391  *  22.62700375  *
    20       H         22.40873923  *  25.30984367  *  22.48577270  *
    21       C         26.51564912  *  23.07006642  *  22.48871310  *
    22       C         27.19403426  *  24.29265539  *  22.44735068  *
    23       C         26.45682734  *  25.56054912  *  22.58643112  *
    24       C         25.08359107  *  25.57344741  *  22.67148814  *
    25       H         27.07286050  *  22.15228495  *  22.61966151  *
    26       H         28.28330818  *  24.23404708  *  22.38820224  *
    27       H         27.13317299  *  26.50474782  *  22.54220055  *
    28       H         24.51936673  *  26.49962443  *  22.73767535  *
    29       C         25.05052393  *  23.03068468  *  22.56856459  *
    30       C         24.34574743  *  24.31730286  *  22.60472986  *
 


          CARTESIAN COORDINATES 

    NO.       ATOM           X           Y           Z

     1         C         18.4627     19.5114     22.3613
     2         C         19.8629     19.4402     22.2986
     3         C         20.6760     20.6444     22.4349
     4         C         19.9570     21.9526     22.4219
     5         C         18.5284     21.9553     22.3330
     6         C         17.7842     20.7760     22.3031
     7         C         22.0884     20.6216     22.5442
     8         C         20.7401     23.1359     22.5762
     9         C         22.1325     23.0946     22.5829
    10         C         22.8777     21.8362     22.5954
    11         C         24.3380     21.8102     22.6581
    12         H         24.9033     20.8536     22.5509
    13         C         22.9013     24.3732     22.5495
    14         H         22.5823     19.6148     22.6392
    15         H         17.8765     18.6318     22.2210
    16         H         20.2986     18.4500     22.2815
    17         H         18.0918     22.9510     22.2695
    18         H         16.6671     20.7114     22.3229
    19         H         20.2148     24.1289     22.6270
    20         H         22.4087     25.3098     22.4858
    21         C         26.5156     23.0701     22.4887
    22         C         27.1940     24.2927     22.4474
    23         C         26.4568     25.5605     22.5864
    24         C         25.0836     25.5734     22.6715
    25         H         27.0729     22.1523     22.6197
    26         H         28.2833     24.2340     22.3882
    27         H         27.1332     26.5047     22.5422
    28         H         24.5194     26.4996     22.7377
    29         C         25.0505     23.0307     22.5686
    30         C         24.3457     24.3173     22.6047

           Empirical Formula: C18 H12  =    30 atoms



      MOLECULAR POINT GROUP   :   C1  


      RHF CALCULATION, NO. OF DOUBLY OCCUPIED LEVELS = 42

 WARNING: INDO only performs single-point calculations
  SCF CRITERION =    0.1000E-09

 Summary of symmetry occupancy in each shell:

 SHELL     
    1   42
    v   42
 TOTAL  84




    ROOT NO.    1           2           3           4           5           6

           -44.20015   -42.74286   -40.16785   -36.63391   -35.46199   -34.10668
  
  
  S  C   1   0.15130    -0.21288    -0.27823     0.24503    -0.03761    -0.12873
 PX  C   1   0.03767    -0.04632    -0.04129     0.00671    -0.04595    -0.08124
 PY  C   1   0.05261    -0.07062    -0.08191     0.05180     0.02935     0.04933
 PZ  C   1  -0.00342     0.00539     0.00854    -0.00960     0.00073     0.00445
  
  S  C   2   0.17914    -0.22077    -0.21600     0.11263    -0.16582    -0.28673
 PX  C   2  -0.01039     0.03204     0.07930    -0.10123    -0.04916    -0.03291
 PY  C   2   0.06968    -0.07825    -0.05601    -0.00370    -0.01611    -0.00983
 PZ  C   2   0.00781    -0.00874    -0.00612    -0.00024    -0.00821    -0.01142
  
  S  C   3   0.29706    -0.25775    -0.04075    -0.16226    -0.20032    -0.21597
 PX  C   3  -0.00719     0.05976     0.14373    -0.11009    -0.08548    -0.05986
 PY  C   3   0.05851    -0.02153     0.06924    -0.10068     0.07511     0.12874
 PZ  C   3   0.00135     0.00315     0.01178    -0.01082    -0.00270     0.00102
  
  S  C   4   0.30521    -0.26634    -0.04353    -0.19456     0.14217     0.21816
 PX  C   4   0.04239     0.01825     0.14020    -0.13947    -0.05738    -0.09143
 PY  C   4  -0.03291     0.05757     0.08389    -0.06019     0.10591     0.11983
 PZ  C   4   0.00508    -0.00009     0.01155    -0.01434     0.00192     0.00172
  
  S  C   5   0.18730    -0.22839    -0.21507     0.07200     0.18513     0.29508
 PX  C   5   0.05690    -0.05233    -0.00559    -0.06425     0.02754     0.04079
 PY  C   5  -0.04512     0.06822     0.09739    -0.08851     0.01890     0.03143
 PZ  C   5   0.00377    -0.00341    -0.00012    -0.00452     0.00284     0.00421
  
  S  C   6   0.14999    -0.21042    -0.27259     0.22674     0.08492     0.11000
 PX  C   6   0.06673    -0.08747    -0.09520     0.04969     0.01299     0.01347
 PY  C   6   0.00153     0.00203     0.01489    -0.03742     0.04666     0.09808
 PZ  C   6   0.00355    -0.00467    -0.00516     0.00299     0.00190     0.00292
  
  S  C   7   0.24034    -0.10480     0.16990    -0.17771    -0.31647    -0.21039
 PX  C   7  -0.04196     0.06480     0.02818     0.08783     0.00026     0.06980
 PY  C   7   0.07887    -0.01033     0.09309    -0.05044    -0.01000     0.03550
 PZ  C   7  -0.00226     0.00371     0.00282     0.00390     0.00081     0.00502
  
  S  C   8   0.25770    -0.11197     0.18477    -0.24026     0.26468     0.19292
 PX  C   8   0.04598     0.02909     0.10022     0.00325     0.01093    -0.07969
 PY  C   8  -0.07741     0.06125    -0.02501     0.09999     0.03304    -0.03208
 PZ  C   8  -0.00742     0.00601    -0.00138     0.00919    -0.00567    -0.00937
  
  S  C   9   0.32127     0.02426     0.31916    -0.00011     0.19897     0.00857
 PX  C   9   0.00676     0.08431     0.00493     0.19687    -0.05537    -0.05906
 PY  C   9  -0.05338     0.04041    -0.05064     0.08606     0.14369    -0.01303
 PZ  C   9  -0.00294     0.00162    -0.00187     0.00375    -0.00268    -0.00110
  
  S  C  10   0.30923     0.03487     0.30631     0.06280    -0.21531    -0.02423
 PX  C  10  -0.04159     0.07888    -0.04420     0.19276    -0.04379     0.06146
 PY  C  10   0.04389     0.04725     0.03957     0.09207     0.12667     0.04033
 PZ  C  10  -0.00325     0.00220    -0.00211     0.00569     0.00134     0.00170
  
  S  C  11   0.20705     0.15737     0.13343     0.28023    -0.27748     0.17198
 PX  C  11  -0.04242     0.01716    -0.08803    -0.02040     0.00351     0.07939
 PY  C  11   0.06223     0.07462     0.01097     0.10288     0.00950     0.04749
 PZ  C  11  -0.00860    -0.00657    -0.00541    -0.01180     0.01262    -0.00864
  
  S  H  12   0.06169     0.04745     0.03577     0.08226    -0.14008     0.08356
  
  S  C  13   0.21235     0.15330     0.13878     0.20823     0.33093    -0.16620
 PX  C  13   0.02564     0.07266    -0.04333     0.07791    -0.00012    -0.07495
 PY  C  13  -0.06807    -0.02150    -0.08241    -0.06631     0.00201    -0.04680
 PZ  C  13   0.00259     0.00276     0.00156     0.00472     0.00300    -0.00286
  
  S  H  14   0.06938    -0.03043     0.04390    -0.03923    -0.14835    -0.10155
  
  S  H  15   0.04188    -0.06216    -0.09084     0.09706    -0.01794    -0.06190
  
  S  H  16   0.05309    -0.06455    -0.06211     0.03512    -0.08547    -0.14392
  
  S  H  17   0.05897    -0.06835    -0.05651     0.00521     0.09678     0.15282
  
  S  H  18   0.03759    -0.05579    -0.08130     0.08299     0.03225     0.04262
  
  S  H  19   0.07724    -0.03226     0.05178    -0.06761     0.14262     0.09702
  
  S  H  20   0.06944     0.04939     0.04145     0.05267     0.17001    -0.08754
  
  S  C  21   0.14127     0.25250    -0.20332    -0.10981    -0.21080     0.28038
 PX  C  21  -0.04429    -0.06179     0.01320    -0.06249     0.02745    -0.02830
 PY  C  21   0.03319     0.07242    -0.08517    -0.10165     0.01449    -0.02129
 PZ  C  21   0.00433     0.00729    -0.00454     0.00088    -0.00604     0.00773
  
  S  C  22   0.11262     0.22799    -0.24186    -0.26030    -0.10395     0.12075
 PX  C  22  -0.04972    -0.09430     0.08484     0.06025     0.00960    -0.00192
 PY  C  22  -0.00590    -0.00824    -0.00002    -0.02250     0.05739    -0.09682
 PZ  C  22   0.00511     0.01019    -0.01028    -0.00970    -0.00188     0.00085
  
  S  C  23   0.11301     0.22787    -0.24017    -0.26463     0.04704    -0.12374
 PX  C  23  -0.03085    -0.05542     0.04262     0.01636    -0.05867     0.09068
 PY  C  23  -0.04163    -0.08094     0.07768     0.06643     0.02950    -0.03865
 PZ  C  23  -0.00106    -0.00237     0.00304     0.00440     0.00339    -0.00483
  
  S  C  24   0.14433     0.25584    -0.20424    -0.13766     0.19738    -0.28854
 PX  C  24   0.00540     0.03086    -0.06698    -0.10999    -0.05627     0.03306
 PY  C  24  -0.05574    -0.09133     0.05637     0.00442    -0.01961     0.01511
 PZ  C  24  -0.00524    -0.00969     0.00844     0.00659    -0.00350     0.00528
  
  S  H  25   0.04360     0.07618    -0.05837    -0.02440    -0.10483     0.14125
  
  S  H  26   0.02936     0.06245    -0.07350    -0.09421    -0.04659     0.06002
  
  S  H  27   0.02615     0.05571    -0.06595    -0.08888     0.01642    -0.04605
  
  S  H  28   0.04510     0.07658    -0.05584    -0.03434     0.10621    -0.14499
  
  S  C  29   0.24364     0.31761    -0.06704     0.19875    -0.17193     0.20904
 PX  C  29  -0.03942     0.00551    -0.11371    -0.16107    -0.05706     0.07823
 PY  C  29   0.02554     0.06469    -0.07904    -0.07852     0.11012    -0.10597
 PZ  C  29   0.00216     0.00167     0.00267     0.00697     0.00036    -0.00086
  
  S  C  30   0.24576     0.32074    -0.07280     0.15615     0.20184    -0.19052
 PX  C  30   0.00097     0.05939    -0.12745    -0.13280    -0.09110     0.04922
 PY  C  30  -0.04381    -0.02479    -0.05866    -0.11559     0.10174    -0.13967
 PZ  C  30  -0.00229    -0.00235    -0.00049    -0.00232     0.00002    -0.00215




    ROOT NO.    7           8           9          10          11          12

           -31.72438   -31.20574   -28.67194   -28.19625   -26.76967   -25.90322
  
  
  S  C   1   0.25766     0.19458    -0.21520    -0.17771    -0.00579     0.19882
 PX  C   1   0.05704    -0.13905    -0.07429     0.19205    -0.01525     0.06337
 PY  C   1  -0.06262     0.05321     0.11088    -0.02203     0.07483    -0.13647
 PZ  C   1  -0.01240    -0.01152     0.01276     0.01178     0.00195    -0.01467
  
  S  C   2   0.23435    -0.17364    -0.14989     0.19040    -0.09782     0.03556
 PX  C   2  -0.08333    -0.12385     0.13946     0.06451    -0.04507    -0.19660
 PY  C   2  -0.05164    -0.06859     0.08866     0.05669     0.10078    -0.11838
 PZ  C   2   0.00279    -0.01271     0.00360     0.01006    -0.00093    -0.01001
  
  S  C   3  -0.03299    -0.26890     0.12618     0.06462     0.10138    -0.18652
 PX  C   3  -0.03817     0.06726     0.10020    -0.17305    -0.09071    -0.06201
 PY  C   3  -0.07943     0.04197    -0.03208    -0.10776     0.16429     0.11821
 PZ  C   3  -0.00511     0.00829     0.00453    -0.01908    -0.00249     0.00297
  
  S  C   4  -0.16681    -0.20228    -0.09590     0.09280     0.08899     0.18952
 PX  C   4   0.11241    -0.01515    -0.08384    -0.16352     0.10092    -0.03064
 PY  C   4   0.01614     0.03753    -0.13134    -0.05309    -0.16913     0.12301
 PZ  C   4   0.00608    -0.00112    -0.01434    -0.01542     0.00095     0.00738
  
  S  C   5  -0.28171     0.04673     0.18228     0.11743    -0.10313    -0.03508
 PX  C   5  -0.03239    -0.14654    -0.10771     0.12823     0.03711     0.18572
 PY  C   5  -0.01668    -0.07661    -0.07622     0.04900    -0.10922     0.12231
 PZ  C   5  -0.00244    -0.00734    -0.00720     0.00410     0.00179     0.01083
  
  S  C   6  -0.04594     0.32117     0.17031    -0.25327     0.01160    -0.20758
 PX  C   6  -0.01622    -0.02839    -0.00206     0.09445     0.04417     0.04008
 PY  C   6  -0.15093    -0.04755     0.14463     0.11943    -0.04505    -0.11447
 PZ  C   6  -0.00277     0.00288     0.00372    -0.00175     0.00263    -0.00393
  
  S  C   7  -0.15566     0.07241     0.21699    -0.14867    -0.18916    -0.02604
 PX  C   7  -0.05374     0.17662    -0.04878     0.02051    -0.11537     0.18418
 PY  C   7  -0.02633     0.11651    -0.03517    -0.08149     0.13321     0.12606
 PZ  C   7  -0.00377     0.01444    -0.00293    -0.00229    -0.00836     0.01543
  
  S  C   8   0.17364    -0.04110    -0.25617    -0.08255    -0.16256    -0.00151
 PX  C   8   0.17144     0.10357     0.04148    -0.06844     0.06962    -0.20348
 PY  C   8   0.08832     0.03456     0.03623     0.05945    -0.16310    -0.13265
 PZ  C   8   0.00688     0.00790     0.00662    -0.00099    -0.00141    -0.01393
  
  S  C   9   0.28861     0.15642    -0.00236     0.02728     0.09956    -0.17136
 PX  C   9  -0.07679     0.03340     0.13741     0.15918     0.12218     0.07136
 PY  C   9   0.11908    -0.08854     0.06101     0.10015    -0.18656    -0.14652
 PZ  C   9  -0.00205     0.00285     0.00001     0.00133     0.00075     0.00133
  
  S  C  10  -0.12541     0.31711     0.01288     0.03656     0.05351     0.19571
 PX  C  10  -0.07736    -0.01066    -0.08089     0.19429    -0.11045     0.03836
 PY  C  10   0.12607    -0.02668    -0.03960     0.09887     0.22653    -0.08744
 PZ  C  10  -0.00085     0.00258    -0.00310     0.00691    -0.00239     0.00420
  
  S  C  11  -0.16349     0.05423    -0.21968     0.15785    -0.19135    -0.02713
 PX  C  11   0.05980    -0.17216    -0.06878    -0.09982    -0.06228    -0.19334
 PY  C  11   0.02658    -0.09079    -0.03159     0.02278     0.17944    -0.08621
 PZ  C  11   0.00594    -0.00033     0.00922    -0.00485     0.00969     0.00413
  
  S  H  12  -0.07335     0.02006    -0.10758     0.03567    -0.21611    -0.02878
  
  S  C  13   0.15956    -0.07662     0.26697     0.10803    -0.16785    -0.01234
 PX  C  13  -0.15457    -0.08692     0.05887    -0.04103     0.10040     0.21051
 PY  C  13  -0.08373    -0.05393     0.01989    -0.09556    -0.16937     0.09716
 PZ  C  13  -0.00146    -0.00073     0.00129     0.00116     0.00333     0.00309
  
  S  H  14  -0.07278     0.01952     0.10566    -0.02272    -0.20402    -0.03124
  
  S  H  15   0.14108     0.11633    -0.14011    -0.14268    -0.03494     0.15227
  
  S  H  16   0.12168    -0.07883    -0.08740     0.08120    -0.12066     0.03576
  
  S  H  17  -0.13667     0.01629     0.07104     0.05522    -0.12894     0.00497
  
  S  H  18  -0.00907     0.17208     0.08026    -0.18320    -0.01832    -0.12413
  
  S  H  19   0.08067    -0.02971    -0.11082     0.01004    -0.19700    -0.01546
  
  S  H  20   0.07759    -0.04258     0.12563     0.01749    -0.21544    -0.01458
  
  S  C  21   0.24130    -0.12145     0.15662    -0.16017    -0.13579     0.03171
 PX  C  21   0.07567     0.11066     0.16033     0.12768    -0.05710     0.17876
 PY  C  21   0.04275     0.06761     0.08200     0.04301     0.11108     0.10439
 PZ  C  21   0.00113    -0.00845    -0.00661    -0.01024    -0.00504    -0.01151
  
  S  C  22   0.23636     0.18132     0.23305     0.23537     0.02004     0.17353
 PX  C  22   0.01442     0.01209     0.05479     0.08237    -0.05297     0.06408
 PY  C  22  -0.09471     0.10939    -0.13218     0.15167     0.08157    -0.12200
 PZ  C  22   0.00154     0.00526    -0.00361     0.00225     0.00401    -0.00637
  
  S  C  23  -0.07202     0.28792    -0.18469     0.27489     0.04016    -0.20256
 PX  C  23   0.12198     0.03142     0.12445     0.15039     0.04245     0.05519
 PY  C  23  -0.06363    -0.00477    -0.08292     0.01110    -0.07234    -0.09044
 PZ  C  23  -0.00921    -0.00552    -0.01067    -0.01344    -0.00685    -0.00686
  
  S  C  24  -0.25897     0.06114    -0.18287    -0.10380    -0.13608    -0.02574
 PX  C  24   0.01083     0.13623    -0.13794     0.12020     0.08721    -0.18850
 PY  C  24   0.00789     0.07152    -0.05949     0.09919    -0.09442    -0.10098
 PZ  C  24   0.00300    -0.00300     0.00139    -0.00054    -0.00465     0.00035
  
  S  H  25   0.11914    -0.06051     0.08268    -0.06395    -0.15020     0.01667
  
  S  H  26   0.12656     0.09282     0.15229     0.16100    -0.02412     0.13213
  
  S  H  27  -0.02351     0.14199    -0.08484     0.18586     0.00001    -0.12269
  
  S  H  28  -0.12458     0.02331    -0.07493    -0.03944    -0.15248    -0.00575
  
  S  C  29  -0.02142    -0.24221    -0.14005    -0.12934     0.10850    -0.16434
 PX  C  29   0.09631    -0.03859     0.02686    -0.16686    -0.12345    -0.05746
 PY  C  29   0.00132    -0.02722     0.10844    -0.10034     0.18096     0.11740
 PZ  C  29  -0.00565    -0.00153    -0.00728     0.00455     0.00421    -0.00294
  
  S  C  30  -0.13782    -0.19985     0.10315    -0.14310     0.10819     0.18282
 PX  C  30  -0.05735     0.00417    -0.15874    -0.13903     0.08197    -0.06745
 PY  C  30  -0.07293     0.04030     0.01607    -0.08098    -0.20721     0.09305
 PZ  C  30  -0.00476     0.00192    -0.00649    -0.00336    -0.00439    -0.00000




    ROOT NO.   13          14          15          16          17          18

           -25.24721   -24.02979   -22.69531   -21.44792   -20.63079   -19.30230
  
  
  S  C   1  -0.01131    -0.11052    -0.00911     0.16507    -0.06974     0.02951
 PX  C   1   0.02071     0.23915    -0.03430    -0.00683     0.19972     0.17249
 PY  C   1  -0.13682    -0.00244    -0.18425    -0.12666    -0.09430     0.16590
 PZ  C   1  -0.00322     0.00763    -0.00704    -0.01599    -0.00070     0.00846
  
  S  C   2   0.14986     0.18100     0.09077    -0.12412     0.12855    -0.00010
 PX  C   2   0.07953    -0.04965     0.08022    -0.18241    -0.09616    -0.17045
 PY  C   2  -0.17842    -0.01811    -0.19797    -0.06899    -0.15170     0.06336
 PZ  C   2  -0.00047     0.00201    -0.00666    -0.00993    -0.00953     0.00839
  
  S  C   3  -0.11516    -0.11770     0.00981    -0.08480    -0.05648    -0.15243
 PX  C   3   0.16374    -0.13722     0.16945     0.09870    -0.01013     0.00793
 PY  C   3  -0.19900    -0.07831    -0.01666     0.14190     0.11775    -0.05685
 PZ  C   3   0.00645    -0.01528     0.00921     0.01621     0.00017     0.01449
  
  S  C   4  -0.12552    -0.11744    -0.01396     0.09275    -0.07177    -0.13285
 PX  C   4  -0.09953    -0.15024     0.06707    -0.15506     0.13077    -0.06388
 PY  C   4   0.22806    -0.07695     0.13073    -0.03911    -0.06237     0.03674
 PZ  C   4   0.00087    -0.02033     0.00776    -0.01813     0.00147     0.00918
  
  S  C   5   0.17578     0.18155     0.11321     0.10954     0.10156     0.01378
 PX  C   5  -0.09952    -0.03968    -0.13153     0.15908    -0.21828    -0.02229
 PY  C   5   0.17215    -0.03503     0.17051     0.09691    -0.04760    -0.17243
 PZ  C   5  -0.00622    -0.00891    -0.00943     0.00186    -0.01860     0.00359
  
  S  C   6  -0.00213    -0.10911     0.02036    -0.17748     0.00685    -0.00510
 PX  C   6  -0.09358     0.13322    -0.17062     0.11168     0.00010     0.25931
 PY  C   6   0.10254     0.20300     0.09307    -0.05505     0.25119     0.04425
 PZ  C   6  -0.00533    -0.00287    -0.00769    -0.00500    -0.00828     0.00673
  
  S  C   7   0.16098    -0.09460    -0.06098     0.19091    -0.08575     0.16950
 PX  C   7   0.02409     0.13988    -0.20291     0.06383     0.00744     0.15020
 PY  C   7  -0.12235     0.10439     0.02389     0.04886     0.21518    -0.02845
 PZ  C   7   0.00347     0.00999    -0.01717     0.00917    -0.00317     0.02615
  
  S  C   8   0.11475    -0.10385    -0.07622    -0.22123    -0.04083     0.15434
 PX  C   8  -0.07961     0.16700    -0.05851    -0.03646     0.17960     0.06733
 PY  C   8   0.09446     0.06177    -0.16650    -0.04918    -0.11521     0.12189
 PZ  C   8   0.00025     0.01166    -0.01176    -0.01145    -0.00102     0.02495
  
  S  C   9   0.00085     0.23216     0.03575    -0.00140    -0.01119    -0.00964
 PX  C   9   0.00410     0.04616     0.12586     0.15719    -0.18256    -0.15669
 PY  C   9   0.03279    -0.09029    -0.18933     0.07267    -0.12759    -0.05389
 PZ  C   9   0.00228     0.00621    -0.00049    -0.01058    -0.00550     0.01661
  
  S  C  10  -0.00423     0.22383    -0.01468    -0.00114    -0.00737    -0.03055
 PX  C  10   0.00114    -0.08025    -0.12251    -0.18907    -0.16227    -0.14295
 PY  C  10  -0.02158     0.07747     0.22753    -0.08917    -0.08069    -0.10138
 PZ  C  10   0.00255     0.00415    -0.00636    -0.01282    -0.01137     0.00444
  
  S  C  11  -0.13931    -0.11843    -0.07748    -0.19000     0.08760    -0.14529
 PX  C  11  -0.08399    -0.12228     0.08657     0.09263     0.19410     0.08257
 PY  C  11   0.05799    -0.06077     0.19044     0.03397    -0.10126     0.14054
 PZ  C  11   0.00805     0.00638     0.00199    -0.00075    -0.00959     0.00889
  
  S  H  12  -0.13036    -0.06530    -0.11619    -0.07904     0.16832    -0.13000
  
  S  C  13  -0.10108    -0.11139    -0.06273     0.23441     0.04954    -0.15332
 PX  C  13   0.00006    -0.12647     0.16495    -0.08506     0.04484     0.15618
 PY  C  13  -0.10775    -0.08754    -0.06104     0.01435     0.23114    -0.02766
 PZ  C  13   0.00046     0.00197     0.00809    -0.01226    -0.00924     0.01677
  
  S  H  14   0.15811    -0.06613    -0.10277     0.07940    -0.16797     0.15287
  
  S  H  15   0.05724    -0.14294     0.11033     0.16450    -0.06084    -0.16080
  
  S  H  16   0.20265     0.09097     0.18761    -0.06852     0.13488    -0.09056
  
  S  H  17   0.21920     0.08146     0.19390     0.06684     0.08027    -0.09392
  
  S  H  18   0.05205    -0.14913     0.11998    -0.16593    -0.00810    -0.20105
  
  S  H  19   0.13591    -0.06699    -0.11650    -0.12062    -0.14443     0.12951
  
  S  H  20  -0.11578    -0.07044    -0.11770     0.15374     0.14813    -0.14991
  
  S  C  21  -0.14292     0.19169     0.09091     0.10967    -0.12033    -0.02941
 PX  C  21  -0.10841     0.00892     0.11877    -0.18439    -0.17171    -0.00471
 PY  C  21   0.15340     0.00622    -0.16535    -0.11923    -0.02049    -0.16202
 PZ  C  21  -0.00556     0.00523     0.00589     0.01477     0.00276     0.00814
  
  S  C  22   0.00420    -0.14507    -0.01172    -0.15785     0.06683    -0.00030
 PX  C  22  -0.10780    -0.11442     0.16599    -0.11796     0.00962     0.25469
 PY  C  22   0.09043    -0.19876    -0.07247     0.10047     0.23726     0.04694
 PZ  C  22   0.00661     0.00223    -0.00968     0.01106     0.00318    -0.01513
  
  S  C  23   0.00716    -0.12625     0.02824     0.18631     0.02951     0.00039
 PX  C  23   0.03509    -0.23836     0.00022     0.05011     0.22756     0.16055
 PY  C  23  -0.12965     0.00844     0.19623     0.09838    -0.12448     0.19359
 PZ  C  23  -0.00931     0.02228     0.01092    -0.00227    -0.03000    -0.00275
  
  S  C  24  -0.16392     0.17849     0.10621    -0.13279    -0.11421    -0.00302
 PX  C  24   0.08632     0.03575    -0.04651     0.15410    -0.14684    -0.14758
 PY  C  24  -0.16691     0.01329     0.20942     0.06941    -0.15984     0.09455
 PZ  C  24  -0.00912     0.00310     0.01467    -0.00778    -0.01153     0.01687
  
  S  H  25  -0.19435     0.09841     0.17934     0.05889    -0.10906     0.07996
  
  S  H  26  -0.06768    -0.14184     0.10705    -0.16940     0.03404     0.18949
  
  S  H  27  -0.04749    -0.14716     0.11898     0.16784     0.03893     0.19062
  
  S  H  28  -0.20560     0.08623     0.18684    -0.07722    -0.09792     0.10768
  
  S  C  29   0.10900    -0.08674     0.01583     0.09651     0.04594     0.15295
 PX  C  29  -0.06473     0.16147    -0.07786     0.18549     0.09575    -0.08760
 PY  C  29   0.23145     0.07432    -0.14106    -0.00160    -0.08909     0.03385
 PZ  C  29   0.00030    -0.00858     0.00863    -0.01500    -0.00351     0.01395
  
  S  C  30   0.12070    -0.09962    -0.02195    -0.10108     0.06621     0.14875
 PX  C  30   0.14325     0.14432    -0.15626    -0.10331    -0.01339    -0.02121
 PY  C  30  -0.18182     0.08399    -0.01617    -0.10253     0.15070    -0.09638
 PZ  C  30  -0.00597     0.00757     0.00570    -0.01842    -0.00402     0.01107




    ROOT NO.   19          20          21          22          23          24

           -18.37527   -17.30754   -17.08272   -16.60191   -16.05543   -15.33483
  
  
  S  C   1   0.15887     0.02670     0.00251    -0.11432     0.06083     0.04789
 PX  C   1  -0.06959    -0.16101    -0.02613    -0.03102     0.15614     0.11089
 PY  C   1  -0.15599     0.16123     0.07138     0.09144     0.16788     0.03455
 PZ  C   1  -0.01954     0.00735     0.00374     0.01076     0.01870     0.00392
  
  S  C   2  -0.16472     0.00525     0.02923     0.05247    -0.01596     0.01793
 PX  C   2  -0.10920     0.17086     0.04699     0.10262    -0.17905    -0.10933
 PY  C   2   0.03033     0.15511     0.09248    -0.26659    -0.05154     0.17826
 PZ  C   2  -0.00215     0.01237     0.00449    -0.01417     0.02051     0.01594
  
  S  C   3   0.05990    -0.02068     0.04369    -0.22027    -0.07366     0.02488
 PX  C   3   0.16416    -0.00002     0.00218    -0.04007     0.24681    -0.05937
 PY  C   3   0.06743    -0.27848    -0.10831     0.05465    -0.02486    -0.06091
 PZ  C   3   0.01615    -0.01393    -0.01198     0.00941     0.05887    -0.01105
  
  S  C   4  -0.05444    -0.05433    -0.06923     0.21546    -0.07368    -0.04564
 PX  C   4  -0.12056    -0.21302    -0.05529    -0.08657     0.09628     0.13466
 PY  C   4  -0.11962     0.14201     0.02978     0.10720     0.21098     0.06929
 PZ  C   4  -0.02893    -0.01048    -0.00399     0.00786     0.05816    -0.00125
  
  S  C   5   0.16058     0.00772    -0.01881    -0.05301    -0.00957    -0.01812
 PX  C   5   0.01583     0.18736     0.03045     0.22290    -0.12869    -0.14108
 PY  C   5   0.09738     0.11938     0.07682    -0.20081    -0.15924     0.14308
 PZ  C   5  -0.01754     0.01226     0.00235     0.03222     0.01923    -0.02141
  
  S  C   6  -0.16596    -0.02065    -0.00080     0.11018     0.05517    -0.02500
 PX  C   6   0.15733     0.04921    -0.01557    -0.03924     0.25646    -0.03293
 PY  C   6   0.00621    -0.24674    -0.09328    -0.01660     0.05184    -0.02835
 PZ  C   6  -0.01187     0.01009     0.00296     0.01657     0.01859    -0.00831
  
  S  C   7   0.08292    -0.04208    -0.02173     0.05587     0.07038    -0.01356
 PX  C   7  -0.16403    -0.03426    -0.04084     0.17669    -0.19264     0.04032
 PY  C   7  -0.09744    -0.08157     0.15483    -0.20624    -0.06853    -0.06068
 PZ  C   7  -0.00948    -0.00288    -0.01265     0.02911     0.00653    -0.00943
  
  S  C   8  -0.10171    -0.01730    -0.00542    -0.06219     0.08131     0.03190
 PX  C   8   0.20296    -0.02523    -0.12591     0.04331    -0.18628    -0.01226
 PY  C   8   0.05430     0.01662     0.12629    -0.25411    -0.08513    -0.10245
 PZ  C   8   0.00443     0.00663     0.00696    -0.02699     0.00960    -0.02824
  
  S  C   9   0.14391     0.16435    -0.10920     0.10429    -0.08184     0.04083
 PX  C   9  -0.05688     0.10723     0.06263     0.03415     0.09739     0.01291
 PY  C   9   0.08540    -0.19279    -0.14474     0.02515    -0.12980     0.02513
 PZ  C   9   0.00046     0.01591     0.00139    -0.01161     0.00739    -0.03407
  
  S  C  10  -0.15783     0.07100     0.18727    -0.07825    -0.05118    -0.06485
 PX  C  10  -0.04206    -0.13522    -0.01883    -0.06945    -0.03551    -0.01340
 PY  C  10   0.07383     0.23064     0.00872     0.05462     0.14952     0.01567
 PZ  C  10  -0.00396     0.00394    -0.00257    -0.00060     0.00613    -0.03571
  
  S  C  11   0.11286    -0.01943    -0.06057    -0.03025     0.07186     0.00871
 PX  C  11   0.18403     0.11092    -0.10085     0.10249     0.09866     0.04205
 PY  C  11   0.03736    -0.07804     0.28129     0.03944     0.14168    -0.22023
 PZ  C  11  -0.00188     0.00011    -0.00026    -0.00543     0.00241    -0.05274
  
  S  H  12   0.10065     0.09326    -0.28908     0.00131    -0.02126     0.18938
  
  S  C  13  -0.08598    -0.07903     0.00828     0.03275     0.07861     0.01979
 PX  C  13  -0.13859     0.11469    -0.17733    -0.07402     0.12337     0.18525
 PY  C  13  -0.10514    -0.04897     0.28788    -0.04284     0.08030    -0.15061
 PZ  C  13   0.00853     0.01935    -0.02160    -0.00626    -0.00371    -0.02068
  
  S  H  14   0.05002     0.02616    -0.15331     0.26410     0.01718     0.05766
  
  S  H  15   0.21558    -0.02317    -0.03625    -0.10776    -0.16449    -0.05493
  
  S  H  16  -0.13976    -0.05451    -0.04321     0.27579    -0.03335    -0.17422
  
  S  H  17   0.14286     0.03308     0.04595    -0.27238    -0.07574     0.15846
  
  S  H  18  -0.20795    -0.04086     0.01596     0.09161    -0.19822     0.01398
  
  S  H  19  -0.08454     0.00621     0.15386    -0.25266     0.05579    -0.06202
  
  S  H  20  -0.06665    -0.12607     0.29633     0.01228     0.05710    -0.17157
  
  S  C  21  -0.17022     0.02004    -0.03752    -0.05749     0.00525     0.05868
 PX  C  21   0.02523    -0.12849    -0.20784    -0.12299     0.12894    -0.14033
 PY  C  21   0.12543    -0.15724     0.15868     0.11708     0.10605     0.30590
 PZ  C  21  -0.01333     0.02349    -0.02131    -0.01854    -0.00198    -0.08037
  
  S  C  22   0.15959    -0.00660     0.09769     0.08715     0.04121     0.05167
 PX  C  22   0.14280    -0.05114     0.02248     0.03807    -0.22224    -0.19700
 PY  C  22  -0.02062     0.24094     0.02397     0.00668    -0.03893    -0.12885
 PZ  C  22  -0.01403     0.01726    -0.01687    -0.01464     0.02118    -0.04120
  
  S  C  23  -0.15761     0.02092    -0.09562    -0.07889     0.05096    -0.03670
 PX  C  23  -0.09253     0.18859     0.07614    -0.01291    -0.16785     0.14222
 PY  C  23  -0.14090    -0.15200    -0.06004    -0.07313    -0.18270     0.06675
 PZ  C  23   0.00543    -0.02459    -0.01437    -0.00464     0.00615    -0.04191
  
  S  C  24   0.14506     0.00270     0.03650     0.05519    -0.00422    -0.04341
 PX  C  24  -0.07866    -0.18502    -0.15034    -0.05631     0.18457    -0.13691
 PY  C  24   0.00635    -0.19486     0.19347     0.12859    -0.01153     0.30034
 PZ  C  24   0.01506    -0.00564     0.01365     0.01012    -0.01680    -0.01423
  
  S  H  25  -0.15871     0.07238    -0.23161    -0.16856    -0.01708    -0.26648
  
  S  H  26   0.19693    -0.05295     0.06523     0.07597    -0.16760    -0.14597
  
  S  H  27  -0.21005    -0.00127    -0.05247    -0.09726    -0.19177     0.09765
  
  S  H  28   0.10942    -0.06047     0.23463     0.14779    -0.08795     0.26098
  
  S  C  29   0.03996    -0.09602     0.19543     0.08114    -0.07975    -0.00778
 PX  C  29  -0.12414     0.18918     0.08304     0.05240    -0.09719     0.15678
 PY  C  29  -0.10325    -0.13040    -0.10584    -0.06110    -0.21900     0.08885
 PZ  C  29   0.01997    -0.00046    -0.01100    -0.01071     0.01144    -0.09639
  
  S  C  30  -0.04110     0.03938    -0.20071    -0.09905    -0.09057    -0.02073
 PX  C  30   0.14773    -0.03531     0.08561     0.01172    -0.18710    -0.20702
 PY  C  30   0.05559     0.29302    -0.01760    -0.01501     0.05507    -0.10834
 PZ  C  30   0.02322     0.01789    -0.00414    -0.00365    -0.01038    -0.06998




    ROOT NO.   25          26          27          28          29          30

           -14.99226   -14.87798   -14.72575   -14.35725   -13.75158   -13.46458
  
  
  S  C   1   0.00607    -0.05074     0.02472     0.01270     0.05484     0.00415
 PX  C   1  -0.04402    -0.13663    -0.26369    -0.05623     0.10479     0.02847
 PY  C   1  -0.24880    -0.02647     0.05186     0.07152     0.06604     0.19936
 PZ  C   1   0.00875    -0.03006    -0.04874     0.13881     0.06465    -0.15955
  
  S  C   2  -0.10024    -0.02673    -0.03729     0.00394    -0.03329     0.02864
 PX  C   2  -0.01100     0.12371     0.23579     0.06209    -0.13354    -0.03930
 PY  C   2  -0.06994    -0.23903    -0.04871    -0.04396    -0.04818    -0.08194
 PZ  C   2   0.02952    -0.05696    -0.05890     0.16437     0.07108    -0.18428
  
  S  C   3   0.05245     0.03209    -0.01874     0.00135     0.02385    -0.01317
 PX  C   3  -0.01090     0.18871     0.08336     0.02916     0.18671     0.13315
 PY  C   3   0.13543     0.08223    -0.12012    -0.05384     0.02284     0.05232
 PZ  C   3   0.07702    -0.04074    -0.08056     0.26684     0.10312    -0.20338
  
  S  C   4   0.03781    -0.01577    -0.03992    -0.02619     0.02355     0.01159
 PX  C   4   0.05617    -0.15625    -0.06143    -0.09233     0.14569     0.08526
 PY  C   4  -0.13976    -0.08973     0.09032     0.01128     0.15876     0.08165
 PZ  C   4   0.07262    -0.03874    -0.08350     0.27172     0.09908    -0.21972
  
  S  C   5   0.02510     0.01716     0.09677     0.02424    -0.02860    -0.01609
 PX  C   5  -0.08059     0.12853     0.01875     0.04857    -0.13316    -0.03124
 PY  C   5  -0.20086    -0.23266    -0.06846     0.04798    -0.05844     0.08392
 PZ  C   5   0.03501     0.00195    -0.05539     0.18423     0.06370    -0.19649
  
  S  C   6  -0.01903     0.04579    -0.01704    -0.00762     0.03763     0.03686
 PX  C   6   0.04279     0.11827     0.27247     0.02800     0.10546     0.08518
 PY  C   6   0.24564     0.06556    -0.05788    -0.08700     0.04350    -0.14308
 PZ  C   6   0.01632    -0.00891    -0.03753     0.14579     0.06193    -0.16694
  
  S  C   7  -0.01847     0.00124    -0.07764    -0.02593    -0.03559     0.01838
 PX  C   7  -0.04189    -0.17588    -0.10102    -0.07618    -0.22121    -0.07849
 PY  C   7  -0.21160     0.26159    -0.07493     0.08796    -0.11763     0.07206
 PZ  C   7   0.07382    -0.08145    -0.07351     0.23223     0.01551    -0.12039
  
  S  C   8   0.05491     0.00331     0.03456    -0.01774    -0.02627    -0.02426
 PX  C   8   0.02597    -0.14461     0.22542     0.03169    -0.21543    -0.01234
 PY  C   8   0.07384     0.29086    -0.13052    -0.03266    -0.14495    -0.08731
 PZ  C   8   0.08762     0.00128    -0.07313     0.25959    -0.00573    -0.14013
  
  S  C   9   0.00431    -0.03617     0.00538     0.00646     0.01962    -0.01082
 PX  C   9  -0.02637     0.14571    -0.25474    -0.03254     0.23182     0.01661
 PY  C   9   0.02810     0.06110    -0.14845    -0.03230     0.06454     0.16435
 PZ  C   9   0.10582    -0.03677    -0.07467     0.30757    -0.03130    -0.02788
  
  S  C  10   0.01353     0.02865     0.00439    -0.00823     0.02201    -0.02658
 PX  C  10   0.25292    -0.10914     0.14109    -0.07625     0.18162     0.08640
 PY  C  10   0.10258    -0.06828     0.07646    -0.01791     0.16743    -0.09537
 PZ  C  10   0.11126    -0.07525    -0.05884     0.29548    -0.00704    -0.00286
  
  S  C  11   0.01759     0.00448     0.06704     0.04537    -0.00219     0.02567
 PX  C  11  -0.23912     0.09238    -0.12748     0.06170    -0.18913    -0.07495
 PY  C  11   0.12431    -0.17317    -0.03830    -0.11791    -0.20451    -0.02759
 PZ  C  11   0.07426    -0.05933    -0.04965     0.21812    -0.04301     0.13301
  
  S  H  12  -0.19278     0.17249     0.00649     0.11947     0.08082    -0.01053
  
  S  C  13  -0.07328    -0.00627    -0.04356     0.01512     0.01501     0.01523
 PX  C  13   0.04496     0.07543     0.01468    -0.01191    -0.25860    -0.10758
 PY  C  13  -0.04065    -0.17395     0.25759     0.06407    -0.05740    -0.10270
 PZ  C  13   0.08330    -0.01765    -0.07597     0.20746    -0.05491     0.12071
  
  S  H  14   0.14001    -0.27710    -0.01662    -0.09101    -0.01188    -0.09393
  
  S  H  15   0.20868     0.06312     0.10784    -0.03519    -0.08709    -0.15419
  
  S  H  16   0.00629     0.22204     0.11078     0.05558    -0.03522     0.06772
  
  S  H  17  -0.12450    -0.21898    -0.01705     0.02259    -0.01686     0.08612
  
  S  H  18  -0.05358    -0.08181    -0.25529    -0.02551    -0.08702    -0.06502
  
  S  H  19   0.06768     0.28297    -0.18052    -0.03256    -0.03799    -0.08415
  
  S  H  20  -0.08289    -0.15710     0.16898     0.04902     0.07527    -0.03397
  
  S  C  21   0.09959     0.00564     0.04899    -0.01426     0.01225    -0.00024
 PX  C  21  -0.04238    -0.06188     0.10380     0.02308    -0.17979     0.03385
 PY  C  21  -0.01798     0.08551     0.12775     0.12480    -0.11433    -0.04292
 PZ  C  21   0.04942    -0.04711    -0.05767     0.11673    -0.05323     0.23319
  
  S  C  22  -0.00707     0.02016    -0.05309    -0.00951    -0.05502    -0.00159
 PX  C  22  -0.22136    -0.02553    -0.09079     0.00348     0.22742    -0.05364
 PY  C  22   0.12845    -0.03652    -0.18564    -0.13211     0.04409     0.08526
 PZ  C  22   0.05345    -0.03194    -0.03738     0.09209    -0.07359     0.22004
  
  S  C  23   0.00638    -0.02356     0.03466     0.00237    -0.05505    -0.01190
 PX  C  23   0.26846     0.03805     0.07101     0.00404     0.04827     0.13656
 PY  C  23  -0.10836     0.02963     0.21490     0.11757     0.13061    -0.09190
 PZ  C  23   0.00087    -0.02550    -0.03563     0.11200    -0.05003     0.20057
  
  S  C  24   0.00071    -0.00012    -0.08678    -0.03838     0.03415     0.01573
 PX  C  24  -0.26109    -0.04781    -0.02319     0.03026    -0.09363    -0.11098
 PY  C  24   0.02565     0.08775    -0.00411     0.03545    -0.10286     0.05578
 PZ  C  24   0.05246    -0.01871    -0.05123     0.13989    -0.05111     0.24507
  
  S  H  25   0.04432    -0.09033    -0.03133    -0.07723     0.01182     0.07732
  
  S  H  26  -0.21159    -0.01090    -0.10246    -0.00230     0.19061    -0.06648
  
  S  H  27   0.05753     0.02905     0.21895     0.09082     0.11297    -0.01186
  
  S  H  28   0.14352     0.08185    -0.03354     0.00428    -0.01833     0.12345
  
  S  C  29  -0.04758    -0.02678    -0.00703     0.00421    -0.01103    -0.01314
 PX  C  29   0.09655     0.07343    -0.07935    -0.00277     0.18348    -0.00846
 PY  C  29  -0.07693     0.06079     0.11043     0.10180     0.20547     0.08216
 PZ  C  29   0.06419    -0.06892    -0.06633     0.22289    -0.09294     0.26633
  
  S  C  30  -0.03495     0.02840     0.05000     0.02634    -0.01266    -0.00925
 PX  C  30  -0.03605    -0.07270     0.05078     0.00531     0.26150     0.07069
 PY  C  30   0.13619    -0.03072    -0.06687    -0.09890     0.04011    -0.05960
 PZ  C  30   0.08325    -0.04684    -0.07844     0.21811    -0.06334     0.26982




    ROOT NO.   31          32          33          34          35          36

           -13.08283   -12.93373   -12.31120   -11.83713   -11.71972   -11.40400
  
  
  S  C   1  -0.02325    -0.01607    -0.00160    -0.01389    -0.02812     0.02099
 PX  C   1  -0.04464     0.26298    -0.04594    -0.07388     0.13023     0.09324
 PY  C   1  -0.23150    -0.02194     0.15104     0.14683    -0.04444     0.06045
 PZ  C   1  -0.15569    -0.03153    -0.08917    -0.14858    -0.26103     0.10610
  
  S  C   2  -0.00808     0.00137    -0.00764    -0.02568     0.02438    -0.04733
 PX  C   2   0.06116    -0.26096     0.01741     0.03492    -0.11652    -0.12722
 PY  C   2   0.17935    -0.02584    -0.13137    -0.15782     0.06703    -0.13284
 PZ  C   2  -0.12866    -0.03311    -0.09022    -0.12553    -0.17298     0.06500
  
  S  C   3   0.00814    -0.02868     0.00922     0.00481    -0.00356     0.01724
 PX  C   3  -0.11945     0.14557    -0.01854    -0.13597     0.18282     0.12015
 PY  C   3  -0.11191     0.07701     0.15948     0.26307    -0.10928     0.15449
 PZ  C   3  -0.15878    -0.03447    -0.03400    -0.01503    -0.03186     0.01885
  
  S  C   4   0.00026     0.03331     0.00420     0.00110    -0.00231    -0.02351
 PX  C   4   0.07278    -0.18560     0.09702     0.16116    -0.17460    -0.12823
 PY  C   4   0.07141    -0.05957    -0.11824    -0.24967     0.11121    -0.18617
 PZ  C   4  -0.12579    -0.09259    -0.03762    -0.02067    -0.07033    -0.04643
  
  S  C   5  -0.00947    -0.02654    -0.01417    -0.03741     0.02017     0.01861
 PX  C   5  -0.07414     0.21662    -0.07099    -0.12386     0.17763     0.11882
 PY  C   5  -0.19238     0.01433     0.11773     0.13241    -0.05221     0.08273
 PZ  C   5  -0.14133    -0.04050    -0.08934    -0.12874    -0.19268     0.04739
  
  S  C   6  -0.00107     0.00737     0.01023     0.00982     0.01097    -0.01931
 PX  C   6   0.01978    -0.24619     0.07166     0.08263    -0.10585    -0.08567
 PY  C   6   0.23799     0.00603    -0.14246    -0.14375     0.03721    -0.09037
 PZ  C   6  -0.15388    -0.04584    -0.09020    -0.15068    -0.27470     0.09254
  
  S  C   7  -0.04185     0.05865     0.00379    -0.04324     0.01553    -0.03533
 PX  C   7   0.09551    -0.11696     0.02101     0.09615    -0.17575    -0.14671
 PY  C   7  -0.11706    -0.09395    -0.01356    -0.17038     0.03571    -0.17159
 PZ  C   7  -0.03912    -0.04202     0.03125     0.10061     0.10786    -0.07026
  
  S  C   8   0.03936    -0.06137    -0.00252    -0.04172     0.02545     0.01005
 PX  C   8  -0.15898     0.00838     0.02616    -0.09255     0.11078     0.18562
 PY  C   8   0.00537     0.13696     0.03741     0.16107    -0.05884     0.16837
 PZ  C   8  -0.04379    -0.04199     0.04568     0.10180     0.12383    -0.05063
  
  S  C   9  -0.00312     0.05845    -0.00319     0.00306    -0.00241    -0.00456
 PX  C   9   0.13752     0.05225    -0.02168     0.13027    -0.13366    -0.18226
 PY  C   9  -0.19895    -0.10366     0.11496    -0.19329     0.01546    -0.19991
 PZ  C   9   0.03849    -0.03313     0.10725     0.14350     0.27179    -0.10824
  
  S  C  10   0.04350    -0.03638     0.00451    -0.01139    -0.00198     0.01594
 PX  C  10  -0.12161    -0.06413     0.10586    -0.12076     0.10856     0.18177
 PY  C  10   0.17172     0.16634    -0.06617     0.20962    -0.02738     0.18281
 PZ  C  10   0.03948    -0.03260     0.09582     0.14401     0.28178    -0.10646
  
  S  C  11  -0.03195     0.06331     0.03422    -0.02911     0.02448    -0.00493
 PX  C  11   0.08726     0.10632    -0.08385     0.09794    -0.11924    -0.18389
 PY  C  11  -0.10891     0.04010     0.15955    -0.10097    -0.05763    -0.12152
 PZ  C  11   0.09904     0.00297     0.04818     0.05356     0.13268    -0.05940
  
  S  H  12   0.10739     0.04923    -0.17936     0.13601    -0.01155     0.01936
  
  S  C  13   0.02913    -0.08097     0.03698    -0.04747     0.00969    -0.02425
 PX  C  13   0.04581    -0.11503     0.10229    -0.05482     0.07351     0.23578
 PY  C  13   0.10751     0.08098    -0.12410     0.11998     0.03602     0.16178
 PZ  C  13   0.08890    -0.00571     0.09430     0.01597     0.10472    -0.05216
  
  S  H  14   0.11881     0.05481     0.02308     0.20509    -0.10545     0.07275
  
  S  H  15   0.21638    -0.12418    -0.09078    -0.07029    -0.01714    -0.10618
  
  S  H  16  -0.12816    -0.07984     0.12502     0.16040    -0.10156     0.04788
  
  S  H  17  -0.13235    -0.08521     0.13664     0.17608    -0.11103     0.03581
  
  S  H  18  -0.02628     0.24859    -0.06641    -0.07862     0.11332     0.08691
  
  S  H  19   0.09177     0.08278     0.02087     0.19609    -0.09732     0.07302
  
  S  H  20   0.07846     0.07778    -0.15208     0.12086    -0.00682     0.02595
  
  S  C  21  -0.02513     0.01086     0.04586    -0.02019     0.01712     0.02095
 PX  C  21  -0.13321     0.16454    -0.18579     0.08509    -0.06771    -0.18348
 PY  C  21   0.08418     0.18375     0.16138    -0.06561    -0.09525    -0.05437
 PZ  C  21   0.11947    -0.00275    -0.08082    -0.07561    -0.14127     0.11482
  
  S  C  22  -0.01004    -0.02990    -0.01835     0.00810     0.00599    -0.00993
 PX  C  22   0.16212    -0.12313     0.11426    -0.05139     0.02899     0.12853
 PY  C  22  -0.10864    -0.22398    -0.19208     0.06585     0.10247     0.06917
 PZ  C  22   0.10112     0.01336    -0.09743    -0.10582    -0.21066     0.15401
  
  S  C  23  -0.00118     0.00277    -0.00220    -0.00200     0.00274     0.02372
 PX  C  23  -0.12636     0.14682    -0.09924     0.02169    -0.07424    -0.12046
 PY  C  23   0.11625     0.21658     0.21964    -0.06072    -0.06595    -0.05767
 PZ  C  23   0.15278     0.01029    -0.03501    -0.14102    -0.22738     0.18750
  
  S  C  24  -0.01549    -0.01906     0.02584    -0.01776    -0.01565    -0.03743
 PX  C  24   0.14174    -0.14851     0.05943    -0.02405     0.06227     0.16575
 PY  C  24  -0.04227    -0.16643    -0.22160     0.08152     0.09624     0.10434
 PZ  C  24   0.13895     0.01546    -0.04176    -0.11374    -0.18166     0.12647
  
  S  H  25  -0.13068    -0.06226    -0.22712     0.08958     0.03977    -0.02528
  
  S  H  26   0.15095    -0.12910     0.11382    -0.04255     0.04174     0.11801
  
  S  H  27   0.02229     0.26669     0.13302    -0.03672    -0.09545    -0.12155
  
  S  H  28  -0.10196    -0.06940    -0.21939     0.07515     0.03228    -0.00624
  
  S  C  29   0.01615    -0.03092     0.00020    -0.00629    -0.00652    -0.01154
 PX  C  29   0.13993    -0.13357     0.21389    -0.10330     0.06323     0.19391
 PY  C  29   0.03288    -0.05537    -0.25995     0.12674     0.08076     0.10864
 PZ  C  29   0.15729     0.04016    -0.00520    -0.03157    -0.03789    -0.01079
  
  S  C  30  -0.00986     0.03665    -0.01090     0.00494     0.00270     0.01059
 PX  C  30  -0.05104     0.17238    -0.13174     0.08681    -0.07784    -0.21148
 PY  C  30  -0.01173     0.12006     0.30232    -0.13058    -0.07943    -0.09728
 PZ  C  30   0.16402     0.04138     0.04164    -0.06792    -0.06465     0.00403




    ROOT NO.   37          38          39          40          41          42

           -10.50673    -9.82459    -9.60910    -8.24252    -8.09912    -6.68982
  
  
  S  C   1  -0.00952    -0.03577    -0.02299    -0.03110     0.02967    -0.01980
 PX  C   1   0.01781    -0.00482     0.01256     0.00325    -0.00155    -0.00192
 PY  C   1   0.00871     0.00881     0.01228     0.01173    -0.01050     0.00722
 PZ  C   1  -0.14453    -0.25502    -0.24620    -0.28254     0.22701    -0.16848
  
  S  C   2   0.01676     0.00762     0.02375     0.02731     0.00336     0.01951
 PX  C   2  -0.02054     0.01071    -0.01747    -0.01048    -0.00084    -0.00527
 PY  C   2   0.02192     0.00509     0.02472     0.02510     0.00805     0.01623
 PZ  C   2  -0.23827     0.02301    -0.32659    -0.35072    -0.07680    -0.23619
  
  S  C   3  -0.00956     0.00600    -0.00236     0.00475    -0.00798     0.00679
 PX  C   3   0.02422    -0.02953     0.01956     0.00349     0.03407    -0.00110
 PY  C   3   0.01226    -0.03265     0.01258     0.00514     0.01185    -0.00442
 PZ  C   3  -0.21422     0.34328    -0.14327     0.02331    -0.35169     0.10389
  
  S  C   4  -0.00197    -0.00392    -0.01079    -0.01629     0.01400    -0.00136
 PX  C   4  -0.01844    -0.02040    -0.02587    -0.01666     0.03768     0.01409
 PY  C   4  -0.00582     0.00702    -0.01703    -0.01565     0.02966     0.01184
 PZ  C   4   0.24010     0.15494     0.28283     0.12823    -0.32709    -0.14263
  
  S  C   5   0.00370    -0.00307     0.00531     0.00756    -0.00210     0.00240
 PX  C   5  -0.01062     0.02376    -0.01392    -0.01749    -0.01716    -0.01830
 PY  C   5   0.01682    -0.00194     0.01776     0.01194    -0.00963     0.00129
 PZ  C   5   0.19560    -0.20750     0.27788     0.35304     0.04005     0.22388
  
  S  C   6  -0.00617     0.01840    -0.00620    -0.00807    -0.01113    -0.00547
 PX  C   6  -0.00915     0.00616    -0.00672    -0.00343    -0.00159     0.00092
 PY  C   6  -0.00727    -0.01282    -0.00997    -0.00678     0.01818     0.00102
 PZ  C   6   0.05386    -0.37158     0.06345     0.15586     0.30251     0.19984
  
  S  C   7   0.01046    -0.00212     0.00801    -0.00266     0.00871    -0.00906
 PX  C   7   0.02387    -0.02016     0.00631    -0.02273    -0.00398    -0.03748
 PY  C   7  -0.02495     0.03198    -0.00942     0.00311     0.00788     0.00843
 PZ  C   7  -0.31574     0.29350    -0.13628     0.21342     0.03622     0.37177
  
  S  C   8   0.00760     0.00348     0.00475    -0.00611    -0.00499    -0.01186
 PX  C   8  -0.00064    -0.00480    -0.00099     0.01548    -0.01609     0.01237
 PY  C   8  -0.05160    -0.01845    -0.02428     0.02893    -0.00520     0.03197
 PZ  C   8   0.36277     0.09727     0.22403    -0.21881    -0.02893    -0.36151
  
  S  C   9   0.00457    -0.00047     0.01180    -0.00192     0.00223    -0.00436
 PX  C   9  -0.00746     0.00266    -0.00195    -0.01172     0.01777    -0.00514
 PY  C   9  -0.00207     0.02702     0.01633    -0.01358     0.01798    -0.00375
 PZ  C   9   0.27042    -0.02488    -0.01303    -0.29639     0.30488     0.00273
  
  S  C  10  -0.00630     0.00310    -0.00895    -0.00356    -0.01070     0.01237
 PX  C  10   0.02400    -0.00259     0.01146    -0.00934    -0.02888     0.00824
 PY  C  10   0.01494    -0.02779    -0.00258     0.00277    -0.01160     0.00237
 PZ  C  10  -0.24744     0.02061    -0.01109     0.15876     0.41034     0.04014
  
  S  C  11  -0.03431    -0.01716     0.02061     0.02322     0.00870    -0.03867
 PX  C  11  -0.01093     0.00510    -0.00493     0.00127     0.01270    -0.00841
 PY  C  11   0.00122     0.02044     0.00536    -0.00363     0.00811    -0.00047
 PZ  C  11  -0.34141    -0.24552     0.14183     0.22620     0.05735    -0.37621
  
  S  H  12   0.01354    -0.00443    -0.01627    -0.00775    -0.00294     0.02044
  
  S  C  13  -0.00144     0.00073     0.00265    -0.00219    -0.00016    -0.00528
 PX  C  13  -0.02886    -0.01136     0.01313     0.01681    -0.01643    -0.01149
 PY  C  13   0.03335    -0.02607    -0.02897    -0.00481    -0.01598     0.02205
 PZ  C  13   0.28777    -0.18013    -0.27550    -0.21663    -0.07902     0.39340
  
  S  H  14   0.01194    -0.01825     0.00204     0.00328    -0.00456     0.00073
  
  S  H  15  -0.00419     0.01283     0.00339     0.01312    -0.00996     0.01084
  
  S  H  16  -0.01745     0.00349    -0.01530    -0.01242    -0.00789    -0.00891
  
  S  H  17   0.00900    -0.00272     0.00926     0.00488    -0.00582    -0.00067
  
  S  H  18   0.00871    -0.00149     0.00768     0.00564    -0.00172     0.00064
  
  S  H  19  -0.02666    -0.01073    -0.01204     0.01014    -0.00094     0.00711
  
  S  H  20   0.02588    -0.00880    -0.01686    -0.00139    -0.00216     0.00280
  
  S  C  21   0.00932    -0.00610    -0.02203     0.02345    -0.00204    -0.01664
 PX  C  21   0.01463     0.01502    -0.01030    -0.00477     0.01369     0.00555
 PY  C  21  -0.02937     0.01464     0.04956    -0.03615    -0.00467     0.02281
 PZ  C  21  -0.19030     0.03779     0.39083    -0.33046    -0.07499     0.22138
  
  S  C  22  -0.00142    -0.00980    -0.00604     0.00391    -0.00797    -0.00170
 PX  C  22  -0.01143     0.01606     0.03115    -0.02185     0.01103     0.01409
 PY  C  22   0.01654    -0.02405    -0.03439     0.02554    -0.00817    -0.01612
 PZ  C  22  -0.06307     0.28802     0.30254    -0.26911     0.18696     0.19950
  
  S  C  23   0.01024     0.00665    -0.01324     0.00939     0.00549    -0.00335
 PX  C  23   0.01426     0.04747    -0.00441     0.01621     0.03649    -0.02272
 PY  C  23  -0.01840    -0.00874     0.02202    -0.01534    -0.01387     0.00985
 PZ  C  23   0.13235     0.37315    -0.07419     0.16242     0.28885    -0.18432
  
  S  C  24   0.00240     0.01207    -0.00125     0.00443     0.00832    -0.00655
 PX  C  24   0.00979    -0.01438    -0.02288     0.01519    -0.01379    -0.00227
 PY  C  24  -0.01581    -0.03323     0.01364    -0.01617    -0.01579     0.01419
 PZ  C  24   0.21612     0.19430    -0.30484     0.31435     0.07517    -0.21762
  
  S  H  25   0.01589    -0.00407    -0.01405     0.00079     0.00366     0.00169
  
  S  H  26  -0.01086    -0.00420     0.01693    -0.01003    -0.00275     0.00537
  
  S  H  27  -0.00945     0.01287     0.01916    -0.01051     0.00322     0.00195
  
  S  H  28  -0.00312    -0.00667     0.00443    -0.00305    -0.00022    -0.00092
  
  S  C  29   0.00587     0.01120     0.00274    -0.01521     0.00752     0.01808
 PX  C  29  -0.03887    -0.03486     0.03280     0.00009    -0.03571    -0.01056
 PY  C  29   0.00382    -0.03258    -0.00739     0.00570    -0.01456    -0.00779
 PZ  C  29  -0.24148    -0.30931     0.16144     0.03008    -0.31292    -0.15903
  
  S  C  30  -0.00093    -0.00236    -0.00771     0.00852    -0.00356    -0.00001
 PX  C  30   0.01472     0.02238     0.00688    -0.01203     0.02810    -0.00728
 PY  C  30  -0.01903     0.03425     0.03104    -0.00704     0.02300    -0.00701
 PZ  C  30   0.17573    -0.21145    -0.31422     0.08053    -0.32205     0.14708




    ROOT NO.   43          44          45          46          47          48

            -1.09421     0.20064     0.28272     1.20951     1.32706     1.73187
  
  
  S  C   1  -0.01927     0.00286    -0.04634     0.02263     0.04699    -0.01435
 PX  C   1   0.00989     0.01357     0.01210    -0.01527    -0.00251     0.00984
 PY  C   1   0.00820     0.00011     0.01875    -0.00909    -0.01803     0.00439
 PZ  C   1  -0.17300    -0.04031    -0.36164     0.20980     0.28151    -0.12580
  
  S  C   2  -0.01651    -0.02868    -0.00618     0.01795    -0.01538    -0.00822
 PX  C   2  -0.00472    -0.00318    -0.01480     0.01031     0.01137    -0.00377
 PY  C   2  -0.01687    -0.02139    -0.01447     0.01811    -0.00074    -0.00989
 PZ  C   2   0.23465     0.29559     0.20326    -0.30170    -0.03483     0.26444
  
  S  C   3   0.00654     0.01034     0.00756    -0.00687     0.01053    -0.00316
 PX  C   3  -0.02110     0.01345    -0.02513    -0.01265     0.03026     0.02257
 PY  C   3  -0.00158     0.01054    -0.01767     0.00197     0.01455     0.00390
 PZ  C   3   0.10578    -0.23471     0.26505     0.15352    -0.30473    -0.27224
  
  S  C   4   0.00382     0.00049     0.02022    -0.00937    -0.00400    -0.00027
 PX  C   4  -0.00529    -0.01189     0.03228    -0.01748    -0.01766     0.01650
 PY  C   4  -0.00989    -0.01171     0.02187    -0.01219    -0.00687     0.00943
 PZ  C   4   0.14371     0.14371    -0.32999     0.25019     0.19141    -0.26131
  
  S  C   5  -0.00464    -0.00239    -0.01058     0.00365     0.00337     0.00615
 PX  C   5  -0.01452    -0.01454    -0.02416     0.01872    -0.00559    -0.01168
 PY  C   5   0.00904     0.01229     0.00522    -0.01017     0.00703     0.01019
 PZ  C   5   0.22190     0.28325     0.20570    -0.26226     0.16752     0.25338
  
  S  C   6   0.01528     0.01882     0.01459    -0.01881     0.00506     0.01480
 PX  C   6   0.00646     0.00388     0.00863    -0.00510    -0.00467     0.00212
 PY  C   6  -0.01053    -0.00871    -0.01060     0.01116     0.00670    -0.01111
 PZ  C   6  -0.20009    -0.32771     0.11348     0.07658    -0.35645    -0.11018
  
  S  C   7   0.00559    -0.00092    -0.00197     0.00983    -0.02122    -0.01237
 PX  C   7   0.03917     0.01763     0.01423     0.00986    -0.02545    -0.02943
 PY  C   7  -0.00819    -0.00670    -0.00466    -0.00328    -0.00042     0.01733
 PZ  C   7  -0.35731    -0.18204    -0.12878    -0.11699     0.23688     0.35912
  
  S  C   8  -0.02103    -0.00818    -0.01191    -0.00340    -0.00792     0.00748
 PX  C   8   0.00834     0.00991     0.00310     0.00177     0.00475    -0.00762
 PY  C   8   0.03202     0.01856     0.01340     0.01096     0.01096    -0.02688
 PZ  C   8  -0.35115    -0.18685    -0.12952    -0.17720    -0.13390     0.36178
  
  S  C   9   0.01465     0.00051     0.00549     0.00331     0.00137    -0.00967
 PX  C   9   0.00060    -0.00909    -0.00259    -0.00004    -0.00704     0.00302
 PY  C   9  -0.00668    -0.00277     0.00789    -0.00926     0.00911    -0.01131
 PZ  C   9  -0.00833     0.01441     0.43010    -0.03700    -0.00583    -0.26290
  
  S  C  10  -0.00917     0.00657     0.01060    -0.01091     0.02625    -0.01851
 PX  C  10  -0.02139    -0.01040     0.01193    -0.00873     0.01501    -0.00916
 PY  C  10   0.00373    -0.00496    -0.00151     0.00634    -0.00429     0.00155
 PZ  C  10   0.03077     0.41469    -0.17762    -0.02082    -0.00059    -0.25983
  
  S  C  11   0.03721    -0.03233    -0.01464     0.02876    -0.03952     0.06043
 PX  C  11   0.01288    -0.00353     0.00257     0.00342    -0.00275     0.00230
 PY  C  11  -0.00519     0.00215     0.00532    -0.00732     0.00652    -0.01086
 PZ  C  11   0.36758    -0.20064    -0.10973     0.18614    -0.24566     0.28230
  
  S  H  12  -0.02069     0.01903     0.00587    -0.02266     0.02311    -0.04292
  
  S  C  13  -0.01511     0.00290     0.00193     0.00931    -0.00380     0.02221
 PX  C  13  -0.01580     0.01437     0.00898    -0.00019    -0.00582    -0.00822
 PY  C  13   0.02377    -0.00618    -0.00237     0.01529     0.00682     0.00660
 PZ  C  13   0.40252    -0.20728    -0.08929     0.29033     0.16859     0.26318
  
  S  H  14  -0.00205    -0.00353    -0.00442    -0.00326     0.01163     0.01800
  
  S  H  15   0.00951    -0.00557     0.02805    -0.01147    -0.03419     0.00575
  
  S  H  16   0.00994     0.01382     0.00545    -0.01011     0.00356     0.00554
  
  S  H  17   0.00356    -0.00008     0.00412     0.00095    -0.00670    -0.00640
  
  S  H  18  -0.00856    -0.01307    -0.00844     0.01311    -0.00892    -0.01181
  
  S  H  19   0.00920     0.00260     0.00080     0.00480     0.00072     0.00066
  
  S  H  20   0.00336    -0.00053    -0.00294    -0.00683    -0.00477    -0.01103
  
  S  C  21   0.01449    -0.02962    -0.02095    -0.05697    -0.01666    -0.02123
 PX  C  21   0.00081     0.00731     0.00115     0.00589     0.00339    -0.00162
 PY  C  21  -0.01712     0.02286     0.01082     0.02877     0.00058     0.01122
 PZ  C  21  -0.22146     0.27600     0.17708     0.39877     0.05205     0.15406
  
  S  C  22  -0.01561     0.01758     0.01927     0.03397     0.01515     0.01047
 PX  C  22   0.01878    -0.01097    -0.02610    -0.02937    -0.02264    -0.00789
 PY  C  22  -0.00284    -0.00421     0.00597     0.00048     0.00263     0.00161
 PZ  C  22   0.21208    -0.06609    -0.31872    -0.28246    -0.31317    -0.05410
  
  S  C  23   0.01609    -0.02158    -0.01076    -0.03295     0.01330    -0.02089
 PX  C  23   0.01580    -0.02730     0.00745    -0.01373     0.02760    -0.00925
 PY  C  23  -0.01455     0.01831     0.00386     0.01551    -0.00803     0.00598
 PZ  C  23   0.18742    -0.30868     0.10111    -0.11086     0.39504    -0.10166
  
  S  C  24  -0.01127     0.01563     0.00457     0.01817    -0.01736     0.01344
 PX  C  24  -0.01177     0.01797     0.00503     0.01893    -0.01400     0.01022
 PY  C  24   0.01572    -0.01852    -0.00982    -0.02360     0.01314    -0.01344
 PZ  C  24  -0.22260     0.27715     0.15082     0.33576    -0.20380     0.17556
  
  S  H  25  -0.00680     0.01617     0.01531     0.04430     0.01009     0.02182
  
  S  H  26   0.00536    -0.00623    -0.00790    -0.01124    -0.00938    -0.00079
  
  S  H  27  -0.01163     0.01532     0.00964     0.02731    -0.00897     0.01795
  
  S  H  28   0.00470    -0.01044     0.00060    -0.00813     0.01057    -0.00462
  
  S  C  29  -0.00267     0.02106     0.00080     0.01701     0.01016    -0.00433
 PX  C  29  -0.01497    -0.00685     0.01644     0.00216     0.01565    -0.00033
 PY  C  29   0.00936    -0.01761    -0.00039     0.00429    -0.00298     0.01680
 PZ  C  29  -0.17526    -0.18906     0.24667    -0.21207     0.33011    -0.19881
  
  S  C  30   0.00761    -0.00749    -0.00546    -0.01971     0.00478    -0.01722
 PX  C  30   0.00726    -0.01443     0.00605     0.00329     0.00757     0.00950
 PY  C  30   0.00239    -0.00152     0.01127     0.01320     0.01334     0.00208
 PZ  C  30  -0.14993     0.15342    -0.29102    -0.33264    -0.22413    -0.16638




    ROOT NO.   49          50          51          52          53          54

             2.33197     2.43764     2.84923     3.10138     3.23655     3.36439
  
  
  S  C   1  -0.00139     0.10568     0.14155     0.09533    -0.09873     0.12788
 PX  C   1  -0.02829     0.01653     0.03351    -0.00889     0.02417     0.07977
 PY  C   1  -0.02742     0.00404     0.03398    -0.00021    -0.06206    -0.02985
 PZ  C   1   0.28400     0.16229    -0.06921     0.19695     0.08280    -0.06561
  
  S  C   2   0.08010    -0.12619    -0.21564    -0.06034     0.07030    -0.25323
 PX  C   2   0.03515    -0.01582    -0.02713     0.01735    -0.02573    -0.03807
 PY  C   2   0.03888    -0.03666    -0.05857    -0.00109     0.00283    -0.05557
 PZ  C   2  -0.19017    -0.14465     0.02200    -0.22337    -0.07371     0.01453
  
  S  C   3  -0.12625     0.20043     0.28614     0.06793    -0.04347     0.26851
 PX  C   3  -0.01256     0.01018    -0.03902    -0.04443     0.11637     0.03518
 PY  C   3  -0.01819     0.02433     0.02619    -0.00766    -0.05469    -0.09631
 PZ  C   3   0.04154     0.04082    -0.04207     0.25914     0.09503    -0.06844
  
  S  C   4   0.13175    -0.18945    -0.27470    -0.06324     0.22715     0.06669
 PX  C   4   0.02510    -0.02841    -0.00625     0.03104    -0.06048    -0.03208
 PY  C   4   0.00233     0.01303     0.05847     0.03377     0.00359     0.16773
 PZ  C   4  -0.03053    -0.04197     0.03068    -0.27067    -0.08472     0.06955
  
  S  C   5  -0.07813     0.12712     0.21117     0.07744    -0.26055    -0.09745
 PX  C   5  -0.04607     0.03753     0.05313    -0.01279    -0.02656    -0.01419
 PY  C   5   0.01062    -0.00483    -0.02418    -0.00448     0.03900    -0.00363
 PZ  C   5   0.19881     0.13237    -0.04174     0.23370     0.06513    -0.06216
  
  S  C   6   0.05360    -0.08749    -0.16914    -0.07262     0.23964     0.05264
 PX  C   6   0.00574    -0.02167    -0.02415    -0.01329     0.00781    -0.01600
 PY  C   6   0.02174    -0.00799    -0.01717     0.00723     0.04102     0.06900
 PZ  C   6  -0.28438    -0.18260     0.04043    -0.22304    -0.04879     0.06097
  
  S  C   7   0.13529    -0.21484    -0.16597    -0.00388    -0.19969    -0.20234
 PX  C   7  -0.00717    -0.00203     0.08004     0.04694    -0.09952     0.06915
 PY  C   7   0.03752    -0.03985     0.01144     0.01318    -0.07731     0.02145
 PZ  C   7   0.13516     0.06936     0.01181    -0.10678    -0.06062     0.05725
  
  S  C   8  -0.14653     0.19861     0.15352     0.01228    -0.05691    -0.27628
 PX  C   8  -0.01580     0.03547    -0.06430    -0.03373     0.10157    -0.08378
 PY  C   8   0.02962    -0.01445    -0.05626    -0.02325     0.05437    -0.02224
 PZ  C   8  -0.15143    -0.10902    -0.02651     0.10885     0.07618    -0.02175
  
  S  C   9   0.17203    -0.25069    -0.02635     0.04689    -0.15497     0.35667
 PX  C   9   0.01211    -0.02671     0.07458     0.02600    -0.08762    -0.02781
 PY  C   9  -0.01101     0.01766     0.05568    -0.00474     0.11913     0.10212
 PZ  C   9   0.30395     0.20304    -0.00150     0.03344    -0.04407     0.02852
  
  S  C  10  -0.18149     0.25656     0.04430    -0.05780     0.36489     0.00792
 PX  C  10   0.00654    -0.00952    -0.07542    -0.01338     0.02339     0.07374
 PY  C  10  -0.01262     0.01983    -0.04423    -0.01706    -0.01060    -0.18457
 PZ  C  10  -0.28800    -0.19574     0.00694    -0.04032     0.01916    -0.05272
  
  S  C  11   0.17654    -0.19501     0.10313     0.05231    -0.26009    -0.13482
 PX  C  11  -0.02112     0.05001     0.07725    -0.01465     0.10722    -0.03450
 PY  C  11   0.02088    -0.02459     0.06551    -0.01931     0.02456    -0.03485
 PZ  C  11   0.08588     0.11122    -0.03196     0.17131     0.07031     0.04388
  
  S  H  12  -0.10355     0.11297    -0.06995    -0.04423     0.15424     0.04646
  
  S  C  13  -0.13868     0.20757    -0.12662    -0.03563    -0.00903    -0.30157
 PX  C  13  -0.00149     0.01317    -0.10278     0.00832    -0.07401     0.06090
 PY  C  13   0.03237    -0.05403    -0.02138     0.00069    -0.04325     0.07967
 PZ  C  13  -0.11993    -0.06243     0.02152    -0.17234     0.00423    -0.01443
  
  S  H  14  -0.07282     0.12427     0.10165    -0.00061     0.10848     0.08833
  
  S  H  15  -0.00538    -0.06839    -0.08210    -0.06293     0.04575    -0.08805
  
  S  H  16  -0.04640     0.06502     0.12821     0.03459    -0.06825     0.13145
  
  S  H  17   0.03239    -0.06939    -0.11853    -0.05351     0.13966     0.02725
  
  S  H  18  -0.04464     0.05414     0.11434     0.03923    -0.16907    -0.04692
  
  S  H  19   0.08103    -0.11556    -0.10119    -0.00625     0.00518     0.13972
  
  S  H  20   0.07817    -0.11219     0.07268     0.02466    -0.02292     0.16440
  
  S  C  21   0.12829    -0.09362     0.20562    -0.07391     0.01483    -0.22283
 PX  C  21  -0.04247     0.04662    -0.04356    -0.00761     0.05413     0.02622
 PY  C  21  -0.00598    -0.01693     0.02925     0.01373     0.04851    -0.03073
 PZ  C  21  -0.14036    -0.16866     0.03566     0.25535     0.04319    -0.05232
  
  S  C  22  -0.08656     0.07128    -0.19651     0.05905    -0.14575     0.20985
 PX  C  22   0.03639    -0.00984     0.03962    -0.02149     0.01743    -0.01199
 PY  C  22   0.01173    -0.00178    -0.01601    -0.00983    -0.08740    -0.03932
 PZ  C  22   0.21690     0.20259    -0.01733    -0.24070    -0.03869     0.04883
  
  S  C  23   0.06298    -0.11354     0.23724    -0.00765     0.28499    -0.06809
 PX  C  23  -0.02365     0.00833    -0.01382     0.00210    -0.00250    -0.05898
 PY  C  23  -0.00721     0.00571    -0.01530     0.01248     0.01181     0.06157
 PZ  C  23  -0.24874    -0.18282    -0.03898     0.25504    -0.00729    -0.02130
  
  S  C  24  -0.08188     0.15365    -0.26102    -0.01699    -0.24113    -0.02663
 PX  C  24   0.02257    -0.00722    -0.00657    -0.00546    -0.05507     0.05508
 PY  C  24   0.02180    -0.05183     0.04985     0.01756     0.00889     0.03132
 PZ  C  24   0.19723     0.13432     0.05511    -0.27643     0.01127     0.02472
  
  S  H  25  -0.07319     0.04540    -0.12541     0.05593    -0.03136     0.11461
  
  S  H  26   0.05267    -0.04569     0.12023    -0.03385     0.08242    -0.14362
  
  S  H  27  -0.04220     0.07941    -0.16014     0.00042    -0.20260     0.02566
  
  S  H  28   0.04444    -0.08063     0.15433     0.00581     0.13739    -0.01547
  
  S  C  29  -0.17000     0.18019    -0.25904     0.01695     0.06146     0.17911
 PX  C  29   0.01745    -0.03520    -0.00628     0.01827    -0.03001     0.07571
 PY  C  29   0.00236     0.01633    -0.07464     0.00181    -0.11654    -0.06979
 PZ  C  29   0.03651     0.05663     0.00956    -0.34228    -0.05058     0.00742
  
  S  C  30   0.14246    -0.20588     0.28768     0.01602     0.12858     0.09631
 PX  C  30  -0.00522     0.01300     0.05917    -0.01820     0.02919    -0.13617
 PY  C  30  -0.02732     0.01564    -0.00330     0.00037     0.09103     0.06119
 PZ  C  30  -0.05325    -0.05358    -0.04680     0.34397     0.01536    -0.00714




    ROOT NO.   55          56          57          58          59          60

             3.52343     3.58716     3.77434     3.92831     4.16916     4.24536
  
  
  S  C   1  -0.12581     0.07476    -0.21168     0.30584    -0.10489    -0.18929
 PX  C   1   0.02048    -0.02201     0.11368     0.02974    -0.06581    -0.08981
 PY  C   1  -0.01596     0.03781    -0.10426    -0.00515     0.02228     0.04466
 PZ  C   1  -0.11015    -0.06355     0.07232    -0.07460     0.02182     0.03782
  
  S  C   2   0.04938    -0.01944    -0.11116    -0.22397     0.20305     0.28814
 PX  C   2  -0.04304     0.03299    -0.14805     0.08808    -0.01742    -0.04095
 PY  C   2  -0.01303     0.00819    -0.06256     0.03075    -0.03708    -0.05893
 PZ  C   2   0.16686     0.06487    -0.06286    -0.00241     0.00773     0.01897
  
  S  C   3   0.00805    -0.03747     0.31595     0.00037     0.03350     0.00992
 PX  C   3   0.04932    -0.03564    -0.03239     0.05273     0.13347     0.11403
 PY  C   3   0.03248     0.00389     0.02647    -0.18678     0.06142     0.12745
 PZ  C   3  -0.27959    -0.09971     0.04192    -0.01065     0.02792     0.01384
  
  S  C   4  -0.01621    -0.01759    -0.18431     0.29675    -0.01363    -0.09026
 PX  C   4  -0.06293     0.05061    -0.14841     0.00021     0.08277     0.11068
 PY  C   4  -0.03004     0.00280     0.09569     0.07961     0.08214     0.04783
 PZ  C   4   0.29048     0.09787    -0.05075     0.03476     0.00678     0.00297
  
  S  C   5  -0.07729     0.10678    -0.20343    -0.12631     0.16615     0.24615
 PX  C   5   0.05001    -0.02554     0.16992    -0.12022    -0.00357    -0.00217
 PY  C   5   0.01843    -0.02899     0.07704    -0.05397     0.02346     0.03702
 PZ  C   5  -0.17929    -0.06132     0.03149    -0.02879    -0.00341    -0.00040
  
  S  C   6   0.12356    -0.14391     0.40521    -0.12103    -0.02614    -0.04437
 PX  C   6   0.00811     0.00244    -0.02027    -0.01133    -0.00843     0.00231
 PY  C   6  -0.01710    -0.00655    -0.00175     0.13354    -0.08637    -0.14048
 PZ  C   6   0.14436     0.04157    -0.00393     0.02316    -0.00556    -0.01186
  
  S  C   7  -0.06388     0.12018    -0.09016    -0.13781    -0.27887    -0.19826
 PX  C   7  -0.03932     0.01562     0.15154    -0.02348    -0.02964    -0.04574
 PY  C   7   0.00084     0.02443     0.07078     0.01837     0.07307     0.02978
 PZ  C   7   0.23780     0.09192    -0.03162    -0.00348    -0.03982    -0.01136
  
  S  C   8   0.07223    -0.08321     0.05646    -0.26596    -0.22977    -0.15315
 PX  C   8   0.03663    -0.04722    -0.06992     0.12417     0.02619    -0.04899
 PY  C   8   0.02798    -0.01275    -0.04001     0.03427    -0.06973    -0.07714
 PZ  C   8  -0.26581    -0.08591     0.02353     0.00843     0.00527     0.00225
  
  S  C   9  -0.11021     0.14351     0.10379    -0.05418    -0.00007     0.15779
 PX  C   9  -0.00289    -0.00779     0.03211    -0.15411    -0.11577    -0.03376
 PY  C   9   0.01320    -0.06284    -0.09523    -0.04218    -0.08709     0.11215
 PZ  C   9   0.32094     0.10183    -0.03764     0.00508    -0.00457     0.00081
  
  S  C  10   0.07098    -0.15026    -0.19183     0.08016    -0.01845     0.09231
 PX  C  10  -0.04187     0.08137    -0.06612    -0.08309    -0.14594     0.05927
 PY  C  10   0.02350    -0.00718    -0.05941    -0.03208    -0.08663    -0.13667
 PZ  C  10  -0.30866    -0.10512     0.04497    -0.00336     0.02822    -0.00774
  
  S  C  11   0.06485    -0.09983     0.16198     0.10715     0.26957    -0.16631
 PX  C  11   0.05464    -0.12827    -0.05209     0.08205     0.01402     0.01425
 PY  C  11   0.01082    -0.09552    -0.03247     0.03012    -0.06501     0.05197
 PZ  C  11   0.20959     0.08569    -0.05820    -0.00766    -0.08264     0.04807
  
  S  H  12  -0.05159     0.06715    -0.11044    -0.07271    -0.26759     0.14886
  
  S  C  13   0.03163     0.08877     0.10081     0.19579     0.24469    -0.18823
 PX  C  13  -0.03787     0.12542     0.09099     0.02801    -0.02844     0.06669
 PY  C  13  -0.03655     0.04447     0.04945     0.01119     0.02227     0.01148
 PZ  C  13  -0.21132    -0.06093     0.02069    -0.01250    -0.00255    -0.00295
  
  S  H  14   0.05869    -0.08451     0.06393     0.10070     0.27919     0.17562
  
  S  H  15   0.07925    -0.03919     0.12233    -0.19798     0.04365     0.10202
  
  S  H  16  -0.03006     0.02073     0.07062     0.12519    -0.17235    -0.22661
  
  S  H  17   0.05768    -0.06433     0.12959     0.05645    -0.14278    -0.19457
  
  S  H  18  -0.07412     0.10009    -0.27548     0.06777    -0.00357     0.01492
  
  S  H  19  -0.05308     0.06991    -0.04572     0.20127     0.23989     0.13992
  
  S  H  20  -0.01553    -0.06759    -0.05727    -0.13899    -0.22515     0.15403
  
  S  C  21   0.00247    -0.06843     0.11381     0.25148    -0.21569     0.25642
 PX  C  21  -0.04353     0.16281     0.04030    -0.00473    -0.02645     0.04830
 PY  C  21  -0.00548     0.09878     0.03016     0.00969     0.00667    -0.00237
 PZ  C  21   0.13886     0.02096     0.00861     0.06045    -0.05875     0.06177
  
  S  C  22   0.05606    -0.28412    -0.17117    -0.16764     0.09385    -0.14446
 PX  C  22  -0.00787    -0.00142    -0.00558    -0.00488    -0.01745     0.00756
 PY  C  22   0.02200    -0.13923     0.02273     0.09845    -0.08101     0.10150
 PZ  C  22  -0.10334    -0.04532    -0.01753    -0.04352     0.03329    -0.03788
  
  S  C  23  -0.06092     0.38221     0.03569    -0.07913     0.04726    -0.06783
 PX  C  23  -0.01014     0.08429     0.07345     0.07611    -0.07899     0.10073
 PY  C  23   0.00399    -0.01554    -0.05854    -0.08943     0.04129    -0.07169
 PZ  C  23   0.11578    -0.00953    -0.00208     0.02806    -0.00958     0.01212
  
  S  C  24  -0.00269    -0.07609     0.12825     0.18141    -0.18879     0.23998
 PX  C  24   0.02569    -0.18800    -0.06789    -0.01826     0.01331    -0.01764
 PY  C  24   0.02680    -0.10607    -0.04652    -0.00111    -0.02731     0.03533
 PZ  C  24  -0.14379    -0.01374    -0.00585    -0.03885     0.01236    -0.01901
  
  S  H  25   0.00903     0.04233    -0.05710    -0.15051     0.18028    -0.20384
  
  S  H  26  -0.03132     0.17955     0.11833     0.11782    -0.03531     0.07556
  
  S  H  27   0.04215    -0.26520    -0.01084     0.07653    -0.00886     0.03285
  
  S  H  28   0.00622     0.04317    -0.07226    -0.10289     0.16406    -0.19741
  
  S  C  29  -0.09402     0.34626     0.01168    -0.15310    -0.00569    -0.01270
 PX  C  29   0.00810    -0.04718    -0.06030    -0.11410     0.12356    -0.14062
 PY  C  29  -0.00551     0.07288     0.11785     0.07861     0.08297    -0.03265
 PZ  C  29  -0.24361    -0.05240     0.02402    -0.03318     0.03113    -0.02727
  
  S  C  30   0.06118    -0.29204    -0.20966    -0.12976    -0.00556    -0.04667
 PX  C  30   0.02114    -0.01488     0.01376     0.05780     0.12644    -0.11448
 PY  C  30  -0.03522     0.13407    -0.04048    -0.11652     0.05279    -0.08315
 PZ  C  30   0.23664     0.06198    -0.01069     0.03169    -0.00258     0.00943




    ROOT NO.   61          62          63          64          65          66

             5.18060     5.29222     5.52444     5.74483     6.16943     6.41857
  
  
  S  C   1  -0.08484     0.03012    -0.30338    -0.16029    -0.11939    -0.03553
 PX  C   1   0.07641    -0.04253     0.06290     0.13970     0.14878     0.05575
 PY  C   1  -0.01764     0.01928     0.23316     0.04336     0.03525     0.01251
 PZ  C   1   0.01907    -0.00612     0.09094     0.04331     0.03349     0.01069
  
  S  C   2  -0.10031     0.05800    -0.06336    -0.16430    -0.16921    -0.06962
 PX  C   2  -0.07165     0.03031    -0.19618    -0.12440    -0.09817    -0.03246
 PY  C   2   0.00573    -0.00762     0.05631     0.10109     0.19646     0.11837
 PZ  C   2  -0.01399     0.00762    -0.01871    -0.02268    -0.01826    -0.00533
  
  S  C   3   0.07973    -0.03743     0.05910    -0.00833    -0.14159    -0.09839
 PX  C   3  -0.13775     0.06791     0.01962    -0.08743     0.05136     0.06825
 PY  C   3   0.00188     0.00908    -0.03848    -0.09216    -0.19921    -0.12188
 PZ  C   3  -0.01723     0.00756    -0.00081    -0.01112     0.00223     0.00627
  
  S  C   4  -0.08878     0.03323     0.01113     0.03398     0.18231     0.11220
 PX  C   4   0.08445    -0.04838    -0.06210     0.10612     0.11211     0.04451
 PY  C   4   0.11745    -0.06308     0.07010     0.05062    -0.13517    -0.11593
 PZ  C   4   0.01234    -0.00823    -0.01485     0.01231     0.01265     0.00399
  
  S  C   5   0.13926    -0.08060    -0.16294     0.14897     0.16441     0.05776
 PX  C   5   0.04298    -0.01886    -0.02068    -0.04716    -0.16222    -0.09087
 PY  C   5   0.07634    -0.05284    -0.23449     0.09064     0.17695     0.08765
 PZ  C   5  -0.00539     0.00452     0.02749    -0.00641    -0.01815    -0.00970
  
  S  C   6   0.09649    -0.06306    -0.25256     0.04812     0.05381     0.01792
 PX  C   6  -0.06246     0.05040     0.34088    -0.02328    -0.06495    -0.02682
 PY  C   6  -0.08741     0.04542    -0.05523    -0.14160    -0.14498    -0.04942
 PZ  C   6   0.00600    -0.00521    -0.04079    -0.00158     0.00276     0.00180
  
  S  C   7   0.19111    -0.08757    -0.03400     0.10496    -0.06213    -0.09074
 PX  C   7   0.08513    -0.04458    -0.00860    -0.00132    -0.11527    -0.09013
 PY  C   7  -0.07791     0.03197     0.02293    -0.13571     0.06270     0.24496
 PZ  C   7   0.02405    -0.00900    -0.00179     0.00586    -0.01510    -0.01545
  
  S  C   8  -0.20157     0.10833    -0.04297    -0.11279     0.06898     0.08382
 PX  C   8   0.02502    -0.04560    -0.01137     0.11845    -0.01109    -0.12072
 PY  C   8  -0.12128     0.06711    -0.04835    -0.07403     0.17540     0.20364
 PZ  C   8  -0.00128    -0.00031     0.00378     0.00656     0.00684     0.00385
  
  S  C   9   0.01601     0.04039     0.03450    -0.14487     0.00055     0.14809
 PX  C   9  -0.14615     0.07945    -0.02208    -0.08077     0.05834     0.07283
 PY  C   9  -0.08510     0.05232    -0.01667     0.10950     0.05294    -0.18664
 PZ  C   9   0.00779    -0.00201    -0.00176    -0.00220    -0.00182     0.00179
  
  S  C  10  -0.01233     0.00911    -0.00574     0.15011     0.02684    -0.18223
 PX  C  10   0.15654    -0.03985     0.01916    -0.05002    -0.06712     0.09742
[...]
  S   H   18   -0.0853   -0.0336    0.0584   -0.0114   -0.0364    0.0042    0.2762   -0.0586
  S   H   19   -0.1543   -0.2111   -0.2942   -0.0386   -0.0217   -0.0012    0.0574    0.1741
  S   H   20    0.1210   -0.2335   -0.1997    0.0874   -0.2865    0.0502   -0.0186   -0.1770
  S   C   21    0.1229   -0.0777    0.0062   -0.0310    0.0187    0.0494   -0.0006   -0.0351
  Px  C   21    0.1168   -0.1211    0.0097   -0.3171    0.1431   -0.0919    0.0047    0.1242
  Py  C   21   -0.1233    0.0986   -0.0049    0.0954   -0.0542    0.2641   -0.0040   -0.0856
  Pz  C   21    0.0216   -0.0133    0.0014   -0.0130    0.0072   -0.0160    0.0003    0.0043
  S   C   22    0.0538   -0.0235   -0.0062    0.0561   -0.0269   -0.0870    0.0007   -0.0112
  Px  C   22    0.0800   -0.0467   -0.0093    0.0351   -0.0286    0.5211   -0.0032    0.0751
  Py  C   22    0.0777   -0.0480    0.0002   -0.0620    0.0205   -0.0862    0.0011   -0.0735
  Pz  C   22   -0.0057    0.0045    0.0001    0.0064   -0.0022   -0.0445    0.0002   -0.0111
  S   C   23   -0.0293    0.0172   -0.0035    0.0478   -0.0207    0.1462   -0.0008    0.0453
  Px  C   23   -0.1027    0.0595   -0.0015   -0.0312    0.0007   -0.1999   -0.0009   -0.0465
  Py  C   23   -0.0025    0.0093   -0.0109    0.0790   -0.0488   -0.4426    0.0019   -0.1225
  Pz  C   23    0.0097   -0.0055    0.0002    0.0018   -0.0001   -0.0077    0.0002   -0.0030
  S   C   24   -0.1103    0.0637    0.0104   -0.0161    0.0132   -0.0602    0.0000    0.0083
  Px  C   24    0.0412   -0.0291   -0.0048   -0.0683    0.0158   -0.2139    0.0001   -0.0616
  Py  C   24   -0.1559    0.1284    0.0454   -0.3098    0.1818    0.2148   -0.0023   -0.0792
  Pz  C   24   -0.0063    0.0061    0.0016   -0.0154    0.0089    0.0224   -0.0000   -0.0018
  S   H   25   -0.1967    0.1545   -0.0113    0.2181   -0.1088    0.1687   -0.0038   -0.0847
  S   H   26   -0.0986    0.0562    0.0098   -0.0278    0.0239   -0.3388    0.0018   -0.0539
  S   H   27    0.0616   -0.0414    0.0075   -0.0351    0.0288    0.2636   -0.0003    0.0725
  S   H   28    0.1758   -0.1254   -0.0368    0.1941   -0.1238   -0.1786    0.0012    0.0234
  S   C   29    0.1374   -0.1400   -0.0155   -0.2815    0.0921    0.0057   -0.0002    0.0073
  Px  C   29   -0.0920    0.0603   -0.0144   -0.0986    0.0160   -0.0827    0.0054    0.1624
  Py  C   29    0.1270   -0.1401   -0.0016    0.1770   -0.0549   -0.0303   -0.0013    0.1196
  Pz  C   29    0.0069   -0.0088   -0.0037   -0.0076   -0.0018    0.0088   -0.0007   -0.0154
  S   C   30   -0.1361    0.1171    0.0135   -0.2740    0.1161   -0.0087    0.0015   -0.0148
  Px  C   30   -0.0652    0.1048    0.0335    0.0887    0.0142    0.0766   -0.0007   -0.1399
  Py  C   30    0.1269   -0.1176   -0.0349   -0.1745    0.0234    0.0546   -0.0046   -0.0623
  Pz  C   30    0.0041   -0.0024    0.0047    0.0039    0.0062    0.0039   -0.0002   -0.0062


   Root No.      73        74        75        76        77        78        79        80

                73 A      74 A      75 A      76 A      77 A      78 A      79 A      80 A   

                 9.364     9.550    10.097    10.618    11.004    11.653    11.791    12.165
  
  S   C    1    0.0369    0.0522    0.0437    0.0586    0.0511    0.0265    0.0081    0.0061
  Px  C    1    0.1519    0.2279   -0.0409    0.2524   -0.1405   -0.0675   -0.1586   -0.1953
  Py  C    1    0.0703    0.0691    0.1946    0.0226    0.2470    0.1161    0.1245    0.1456
  Pz  C    1    0.0020    0.0018    0.0008   -0.0005   -0.0017   -0.0021    0.0006    0.0011
  S   C    2   -0.0624   -0.0883    0.0535   -0.0557    0.0900    0.0536    0.0210    0.0168
  Px  C    2    0.1358    0.2085    0.0108    0.2597   -0.0401    0.0018   -0.1470   -0.1933
  Py  C    2   -0.1908   -0.2294    0.1806   -0.0007    0.2255    0.1527   -0.0507   -0.0822
  Pz  C    2   -0.0172   -0.0223    0.0169   -0.0060    0.0244    0.0153   -0.0001   -0.0026
  S   C    3   -0.0077   -0.0301   -0.0042   -0.0713    0.0274    0.0153    0.0146    0.0115
  Px  C    3   -0.1328   -0.1821    0.2465    0.0130    0.0376   -0.2070    0.1109    0.1040
  Py  C    3   -0.0602   -0.0490    0.0959    0.0785    0.2759    0.3333   -0.1923   -0.2512
  Pz  C    3   -0.0135   -0.0162    0.0231    0.0070    0.0139   -0.0026    0.0005   -0.0036
  S   C    4   -0.0106   -0.0376    0.0046   -0.0654   -0.0331   -0.0238   -0.0197   -0.0220
  Px  C    4   -0.1424   -0.1168   -0.2106    0.1149   -0.2393   -0.1319    0.0946    0.1687
  Py  C    4   -0.0847   -0.0959   -0.1496   -0.0107    0.1222    0.3638   -0.2068   -0.2242
  Pz  C    4   -0.0169   -0.0167   -0.0230    0.0054   -0.0133    0.0073   -0.0051    0.0008
  S   C    5   -0.0681   -0.0836   -0.0610   -0.0239   -0.1007   -0.0582   -0.0204   -0.0156
  Px  C    5   -0.0840   -0.0417   -0.1411    0.1616   -0.1339   -0.0845    0.1224    0.2001
  Py  C    5    0.2221    0.2949    0.0898    0.1735    0.1824    0.1087    0.1019    0.1379
  Pz  C    5   -0.0089   -0.0080   -0.0107    0.0065   -0.0128   -0.0082    0.0059    0.0107
  S   C    6    0.0398    0.0709   -0.0523    0.0835   -0.0513   -0.0191   -0.0083    0.0016
  Px  C    6    0.1329    0.2175   -0.1258    0.1985   -0.0919   -0.0250   -0.0070    0.0134
  Py  C    6    0.0833    0.1177    0.1407    0.0969    0.2678    0.1414    0.2028    0.2600
  Pz  C    6    0.0017    0.0040   -0.0055    0.0059   -0.0058   -0.0017   -0.0038   -0.0041
  S   C    7    0.0629    0.0581   -0.0849   -0.0738    0.0267    0.0709    0.0197   -0.0053
  Px  C    7   -0.0900   -0.1485    0.1544   -0.0738    0.0515   -0.1491    0.1472    0.1204
  Py  C    7    0.1784    0.1017   -0.1339   -0.2503    0.0885    0.0895    0.1389    0.0318
  Pz  C    7   -0.0109   -0.0136    0.0156   -0.0006    0.0015   -0.0150    0.0095    0.0088
  S   C    8    0.0698    0.0302    0.0759   -0.0778   -0.0392   -0.0820   -0.0335   -0.0110
  Px  C    8    0.0863   -0.0532   -0.0067   -0.1885   -0.1256    0.0022   -0.2252   -0.1192
  Py  C    8   -0.1909   -0.1291   -0.1842    0.0960    0.0223    0.1896   -0.0485   -0.0699
  Pz  C    8   -0.0155   -0.0142   -0.0222    0.0052    0.0001    0.0218   -0.0093   -0.0079
  S   C    9   -0.0011    0.0331    0.0361    0.0129    0.0142   -0.0327    0.0024   -0.0019
  Px  C    9    0.1370   -0.0262    0.0603   -0.2271   -0.1699   -0.0784   -0.2389   -0.1171
  Py  C    9    0.0775    0.0297   -0.1118   -0.1600   -0.1613    0.2251    0.3504   -0.0148
  Pz  C    9   -0.0010   -0.0010    0.0027    0.0037    0.0014   -0.0049   -0.0051    0.0018
  S   C   10   -0.0035    0.0310   -0.0415    0.0142   -0.0022    0.0375    0.0175    0.0051
  Px  C   10    0.1340    0.0864    0.0236   -0.2401    0.2082   -0.1578   -0.1832    0.0400
  Py  C   10    0.0744    0.0050   -0.1279   -0.1776    0.0434    0.1753    0.3631    0.0750
  Pz  C   10    0.0081    0.0039   -0.0015   -0.0146    0.0099   -0.0022   -0.0036    0.0033
  S   C   11   -0.0697    0.0075   -0.0667    0.0777   -0.0404    0.0788    0.0193    0.0346
  Px  C   11    0.0924    0.0933   -0.0291   -0.1846    0.1557   -0.0805   -0.1712    0.0742
  Py  C   11   -0.2140    0.0760   -0.1818    0.1191   -0.0185    0.1356   -0.0419    0.1386
  Pz  C   11    0.0024   -0.0008    0.0071   -0.0051    0.0027   -0.0086    0.0003   -0.0043
  S   H   12   -0.1272    0.0088   -0.0772    0.0966   -0.0542    0.0905    0.0256    0.0502
  S   C   13   -0.0513    0.0329    0.0685    0.0596    0.0355   -0.0664    0.0058   -0.0312
  Px  C   13   -0.1334    0.1607    0.1817   -0.0366   -0.0825   -0.0670    0.1834   -0.1987
  Py  C   13    0.2124   -0.0525   -0.1313   -0.2364   -0.1544    0.1434    0.1042   -0.0009
  Pz  C   13   -0.0133    0.0076    0.0136    0.0096    0.0055   -0.0108    0.0017   -0.0071
  S   H   14    0.1085    0.0843   -0.1043   -0.0967    0.0355    0.0921    0.0318   -0.0173
  S   H   15    0.0892    0.1151    0.0886    0.0982    0.0807    0.0387    0.0095    0.0086
  S   H   16   -0.1369   -0.1732    0.0970   -0.0590    0.1349    0.0866    0.0080    0.0026
  S   H   17   -0.1382   -0.1641   -0.0815   -0.0463   -0.1337   -0.0872   -0.0178   -0.0151
  S   H   18    0.0798    0.1304   -0.0693    0.1161   -0.0489   -0.0141   -0.0019    0.0087
  S   H   19    0.1139    0.0497    0.0907   -0.0830   -0.0444   -0.1002   -0.0335    0.0078
  S   H   20   -0.1532    0.0729    0.1191    0.1056    0.0595   -0.0968   -0.0065   -0.0572
  S   C   21    0.0773   -0.0735    0.0740    0.0303   -0.0761    0.0604    0.0009    0.0083
  Px  C   21   -0.0984    0.0183   -0.1622    0.1642    0.0916   -0.0312    0.1797   -0.2124
  Py  C   21    0.2816   -0.2840    0.1356    0.1752   -0.1484    0.1409    0.0814   -0.0780
  Pz  C   21   -0.0156    0.0158   -0.0049   -0.0117    0.0059   -0.0066   -0.0090    0.0102
  S   C   22   -0.0571    0.0740    0.0322   -0.0724   -0.0280    0.0137   -0.0166    0.0120
  Px  C   22    0.1537   -0.2019   -0.1324    0.1652    0.0970   -0.0530    0.0248   -0.0117
  Py  C   22    0.1289   -0.1394    0.1907    0.1352   -0.2412    0.2242    0.1551   -0.1680
  Pz  C   22   -0.0070    0.0121    0.0217   -0.0110   -0.0201    0.0148    0.0035   -0.0052
  S   C   23   -0.0616    0.0643   -0.0650   -0.0665    0.0389   -0.0214   -0.0099   -0.0078
  Px  C   23    0.1640   -0.1948   -0.0520    0.1905    0.1656   -0.1705   -0.0801    0.1419
  Py  C   23    0.0865   -0.0668    0.2076    0.0502   -0.1869    0.1447    0.0735   -0.0755
  Pz  C   23   -0.0088    0.0117    0.0151   -0.0109   -0.0221    0.0200    0.0107   -0.0157
  S   C   24    0.0736   -0.0809   -0.0705    0.0385    0.0873   -0.0709   -0.0003   -0.0077
  Px  C   24    0.1762   -0.2041    0.0180    0.2113    0.0801   -0.0999   -0.0748    0.1593
  Py  C   24   -0.2047    0.1910    0.2249    0.0217   -0.1748    0.1166   -0.0632    0.1312
  Pz  C   24   -0.0217    0.0229    0.0156   -0.0103   -0.0184    0.0148   -0.0006    0.0019
  S   H   25    0.1747   -0.1485    0.1194    0.0353   -0.1048    0.0838   -0.0151    0.0285
  S   H   26   -0.0850    0.1164    0.0888   -0.0956   -0.0644    0.0372   -0.0145    0.0075
  S   H   27   -0.0910    0.0926   -0.0797   -0.0827    0.0358   -0.0168   -0.0089   -0.0080
  S   H   28    0.1554   -0.1555   -0.1095    0.0488    0.1129   -0.0902    0.0113   -0.0225
  S   C   29    0.0218   -0.0440    0.0130    0.0558   -0.0336    0.0328    0.0062    0.0052
  Px  C   29   -0.1475    0.0651   -0.2421    0.1244    0.1669   -0.0857    0.1811   -0.2194
  Py  C   29   -0.1099    0.0780   -0.1391    0.0171   -0.0634    0.2301   -0.2197    0.3401
  Pz  C   29    0.0150   -0.0088    0.0206   -0.0079   -0.0119    0.0030   -0.0063    0.0070
  S   C   30    0.0215   -0.0353    0.0050    0.0510    0.0279   -0.0276    0.0024    0.0017
  Px  C   30   -0.1609    0.1756    0.2638    0.0259   -0.0510   -0.1359    0.1714   -0.2093
  Py  C   30   -0.0714    0.0404    0.1638    0.0808   -0.1919    0.2110   -0.2206    0.3587
  Pz  C   30   -0.0074    0.0078    0.0138    0.0030   -0.0094    0.0047   -0.0034    0.0078


   Root No.      81        82        83        84

                81 A      82 A      83 A      84 A   

                12.530    12.682    13.090    14.336
  
  S   C    1    0.0584   -0.0030   -0.0004    0.0414
  Px  C    1    0.2282    0.1464   -0.2128    0.1044
  Py  C    1    0.0072   -0.1074    0.1439    0.0364
  Pz  C    1   -0.0019   -0.0008    0.0008   -0.0012
  S   C    2    0.0016   -0.0110    0.0177    0.0256
  Px  C    2    0.2754    0.1466   -0.2090    0.1523
  Py  C    2    0.1561    0.0527   -0.0552    0.1297
  Pz  C    2    0.0097    0.0020   -0.0019    0.0107
  S   C    3   -0.0191   -0.0005   -0.0105    0.0205
  Px  C    3    0.2748    0.0230   -0.2427    0.2477
  Py  C    3    0.1418    0.1215   -0.0314    0.1011
  Pz  C    3    0.0309    0.0089   -0.0236    0.0245
  S   C    4   -0.0181    0.0093   -0.0001    0.0212
  Px  C    4    0.1983   -0.1522    0.2026    0.2542
  Py  C    4    0.0663    0.0323    0.1991    0.1357
  Pz  C    4    0.0179   -0.0112    0.0282    0.0280
  S   C    5    0.0195    0.0082   -0.0131    0.0312
  Px  C    5    0.1964   -0.1697    0.2091    0.2196
  Py  C    5    0.0700   -0.1187    0.1690    0.0720
  Pz  C    5    0.0108   -0.0093    0.0113    0.0132
  S   C    6    0.0630   -0.0090    0.0123    0.0463
  Px  C    6    0.1296   -0.0245    0.0336    0.0919
  Py  C    6    0.0494   -0.2051    0.2801    0.0940
  Pz  C    6    0.0051    0.0025   -0.0031    0.0028
  S   C    7   -0.0649    0.0162   -0.0001   -0.0024
  Px  C    7    0.2224    0.0346   -0.2541    0.2605
  Py  C    7    0.0038    0.0838   -0.1445    0.1388
  Pz  C    7    0.0181    0.0016   -0.0183    0.0191
  S   C    8   -0.0601   -0.0074   -0.0036    0.0121
  Px  C    8    0.0146   -0.0938    0.2708    0.2929
  Py  C    8    0.1304   -0.0080    0.1512    0.1357
  Pz  C    8    0.0146   -0.0038    0.0207    0.0195
  S   C    9   -0.0506    0.0145   -0.0211   -0.0172
  Px  C    9   -0.0520   -0.0831    0.2491    0.2859
  Py  C    9    0.0243    0.2902    0.0221    0.0984
  Pz  C    9    0.0015   -0.0053   -0.0010   -0.0014
  S   C   10   -0.0577    0.0039   -0.0058   -0.0145
  Px  C   10   -0.0803   -0.1757   -0.1771    0.2808
  Py  C   10    0.1064    0.2194   -0.1965    0.1121
  Pz  C   10   -0.0015   -0.0043   -0.0104    0.0141
  S   C   11   -0.0588    0.0141   -0.0226   -0.0107
  Px  C   11   -0.1490   -0.1701   -0.1907    0.2619
  Py  C   11   -0.1946   -0.0361   -0.1567    0.1194
  Pz  C   11    0.0079    0.0015    0.0048   -0.0017
  S   H   12   -0.0396    0.0312   -0.0231   -0.0122
  S   C   13   -0.0520    0.0091    0.0081   -0.0078
  Px  C   13   -0.1696    0.2092    0.1757    0.2124
  Py  C   13    0.0286    0.1354    0.0637    0.1330
  Pz  C   13   -0.0075    0.0024    0.0035    0.0008
  S   H   14   -0.0415    0.0359   -0.0056    0.0013
  S   H   15    0.0753   -0.0068    0.0056    0.0473
  S   H   16    0.0105   -0.0084    0.0258    0.0230
  S   H   17    0.0105    0.0161   -0.0362    0.0131
  S   H   18    0.0715   -0.0128    0.0156    0.0467
  S   H   19   -0.0502   -0.0260   -0.0026    0.0085
  S   H   20   -0.0514   -0.0172    0.0179   -0.0069
  S   C   21    0.0108   -0.0272   -0.0114   -0.0230
  Px  C   21   -0.2720   -0.1619   -0.1119    0.1685
  Py  C   21   -0.1309   -0.1663   -0.1066    0.0559
  Pz  C   21    0.0137    0.0136    0.0087   -0.0083
  S   C   22    0.0699   -0.0048    0.0138   -0.0368
  Px  C   22   -0.1395    0.0401   -0.0138    0.0710
  Py  C   22   -0.1428   -0.3051   -0.1633    0.0652
  Pz  C   22    0.0082   -0.0159   -0.0051   -0.0042
  S   C   23    0.0685   -0.0300    0.0016   -0.0370
  Px  C   23   -0.1659    0.3463    0.1147    0.0919
  Py  C   23   -0.0533   -0.1488   -0.0743    0.0244
  Pz  C   23    0.0086   -0.0340   -0.0125   -0.0051
  S   C   24    0.0098    0.0299    0.0215   -0.0199
  Px  C   24   -0.2147    0.3463    0.0968    0.1277
  Py  C   24   -0.1509    0.1274   -0.0034    0.1090
  Pz  C   24    0.0004   -0.0070   -0.0044    0.0021
  S   H   25    0.0118   -0.0336   -0.0224   -0.0166
  S   H   26    0.0759   -0.0271    0.0039   -0.0364
  S   H   27    0.0712   -0.0295    0.0026   -0.0343
  S   H   28    0.0094    0.0369    0.0301   -0.0127
  S   C   29   -0.0114    0.0016    0.0033   -0.0223
  Px  C   29   -0.2664   -0.1461   -0.1097    0.1931
  Py  C   29   -0.1694   -0.0361   -0.2221    0.1355
  Pz  C   29    0.0224    0.0099    0.0119   -0.0162
  S   C   30   -0.0112    0.0100   -0.0015   -0.0193
  Px  C   30   -0.2060    0.2112    0.1744    0.1898
  Py  C   30   -0.1542    0.1732   -0.0651    0.0987
  Pz  C   30   -0.0131    0.0137    0.0029    0.0101


              NET ATOMIC CHARGES AND DIPOLE CONTRIBUTIONS

  ATOM NO.   TYPE          CHARGE      No. of ELECS.   s-Pop       p-Pop       
    1          C          -0.033328        4.0333     1.09711     2.93622
    2          C          -0.031432        4.0314     1.10198     2.92945
    3          C           0.011035        3.9890     1.07154     2.91743
    4          C           0.009394        3.9906     1.06952     2.92109
    5          C          -0.023741        4.0237     1.08856     2.93518
    6          C          -0.023031        4.0230     1.09616     2.92687
    7          C          -0.037580        4.0376     1.10956     2.92802
    8          C          -0.029750        4.0298     1.09814     2.93161
    9          C           0.014521        3.9855     1.06593     2.91955
   10          C           0.013645        3.9864     1.07224     2.91412
   11          C          -0.043091        4.0431     1.11441     2.92868
   12          H           0.028438        0.9716     0.97156
   13          C          -0.050196        4.0502     1.11901     2.93118
   14          H           0.020179        0.9798     0.97982
   15          H           0.025774        0.9742     0.97423
   16          H           0.026317        0.9737     0.97368
   17          H           0.022616        0.9774     0.97738
   18          H           0.024862        0.9751     0.97514
   19          H           0.019765        0.9802     0.98023
   20          H           0.037657        0.9623     0.96234
   21          C          -0.037209        4.0372     1.10252     2.93469
   22          C          -0.031507        4.0315     1.10204     2.92947
   23          C          -0.021922        4.0219     1.10662     2.91530
   24          C          -0.022421        4.0224     1.09067     2.93175
   25          H           0.028227        0.9718     0.97177
   26          H           0.027766        0.9722     0.97223
   27          H           0.017565        0.9824     0.98244
   28          H           0.029366        0.9706     0.97063
   29          C           0.018669        3.9813     1.06756     2.91377
   30          C           0.009411        3.9906     1.07234     2.91825
 DIPOLE           X         Y         Z       TOTAL
 POINT-CHG.    -0.012     0.200    -0.012     0.201
 HYBRID         0.029    -0.048    -0.135     0.147
 SUM            0.017     0.152    -0.147     0.212


          ATOMIC ORBITAL ELECTRON POPULATIONS

     Atom    s        px        py        pz   
    1  C   1.09711   0.98164   0.96336   0.99122
    2  C   1.10198   0.98156   0.94772   1.00017
    3  C   1.07154   0.96775   0.96649   0.98319
    4  C   1.06952   0.96892   0.97089   0.98128
    5  C   1.08856   0.97674   0.94931   1.00913
    6  C   1.09616   0.93919   0.99287   0.99481
    7  C   1.10956   0.96562   0.94315   1.01926
    8  C   1.09814   0.96880   0.94646   1.01635
    9  C   1.06593   0.97279   0.96358   0.98318
   10  C   1.07224   0.96146   0.97069   0.98197
   11  C   1.11441   0.95562   0.94990   1.02316
   12  H   0.97156
   13  C   1.11901   0.96857   0.95146   1.01115
   14  H   0.97982
   15  H   0.97423
   16  H   0.97368
   17  H   0.97738
   18  H   0.97514
   19  H   0.98023
   20  H   0.96234
   21  C   1.10252   0.96771   0.96363   1.00335
   22  C   1.10204   0.94561   0.99086   0.99301
   23  C   1.10662   0.97042   0.94587   0.99901
   24  C   1.09067   0.97189   0.95479   1.00508
   25  H   0.97177
   26  H   0.97223
   27  H   0.98244
   28  H   0.97063
   29  C   1.06756   0.97105   0.96984   0.97288
   30  C   1.07234   0.97005   0.96501   0.98319

 **********************
 *                    *
 * JOB ENDED NORMALLY *
 *                    *
 **********************



 TOTAL JOB TIME:             0.89 SECONDS

 == MOPAC DONE ==


          MOPAC Job: "./tetraceneTraj/tetracene_1608.mop" ended normally on Feb 15, 2023, at 11:35.

rm: cannot remove ./tetraceneTraj/tetracene_1608.cim: No such file or directory
rm: cannot remove ./tetraceneTraj/tetracene_1608.end: No such file or directory
rm: cannot remove ./tetraceneTraj/tetracene_1608.log: No such file or directory
rm: cannot remove ./tetraceneTraj/tetracene_1608.temp: No such file or directory
rm: cannot remove ./tetraceneTraj/tetracene_1608.ple: No such file or directory
rm: cannot remove ./tetraceneTraj/tetracene_1608.sts: No such file or directory
