 *******************************************************************************
 ** Site#:    0         For non-commercial use only    Version 20.173L 64BITS **
 *******************************************************************************
 ** Cite this program as: MOPAC2016, Version: 20.173L, James J. P. Stewart,   **
 ** Stewart Computational Chemistry, web-site: HTTP://OpenMOPAC.net.          **
 *******************************************************************************
 **                                                                           **
 **                                MOPAC2016                                  **
 **                                                                           **
 *******************************************************************************

                              INDO CALCULATION RESULTS

 *******************************************************************************
 *  CALCULATION DONE:                                Wed Feb 15 11:37:17 2023  *
 *  INDO       - The INDO Hamiltonian to be used
 *
 *
 *
 *                 CHARGE ON SYSTEM = 0
 *
 *
 *
 *  C.I.=(N,M) - 3 DOUBLY FILLED LEVELS USED IN A C.I. INVOLVING 6 M.O.'S
 *  T=         - A TIME OF 172800.0 SECONDS REQUESTED
 *  DUMP=N     - RESTART FILE WRITTEN EVERY 7200.0 SECONDS REQUESTED
 *  RELSCF     - DEFAULT SCF CRITERION MULTIPLIED BY 0.0000
 *              (DEFAULT SCF CRITERION = 0.00010)
 *  ALLVEC     - PRINT ALL EIGENVECTORS
 **********
 *  WARNING: Specified print options may not behave as expected with INDO
 **********
 *******************************************************************************
INDO C.I.=(6,3) AllVEC CHARGE=0 RELSCF=0.000001


   ATOM   CHEMICAL          X               Y               Z
  NUMBER   SYMBOL      (ANGSTROMS)     (ANGSTROMS)     (ANGSTROMS)
 
     1       C         18.46053991  *  19.49406254  *  22.39048683  *
     2       C         19.88644965  *  19.43571331  *  22.48132437  *
     3       C         20.66679183  *  20.62571226  *  22.47228792  *
     4       C         19.96359771  *  21.93290949  *  22.47404893  *
     5       C         18.52038196  *  21.97082642  *  22.45279982  *
     6       C         17.79734640  *  20.79850309  *  22.31649622  *
     7       C         22.06905000  *  20.62965364  *  22.51051790  *
     8       C         20.70172860  *  23.15134070  *  22.56707164  *
     9       C         22.11937216  *  23.19867104  *  22.54020511  *
    10       C         22.82056581  *  21.85631669  *  22.50529014  *
    11       C         24.28358905  *  21.79532718  *  22.58329586  *
    12       H         24.76951795  *  20.80604203  *  22.65260877  *
    13       C         22.92629181  *  24.39846803  *  22.61228597  *
    14       H         22.71046284  *  19.73792609  *  22.54910854  *
    15       H         17.86297152  *  18.58346094  *  22.29920890  *
    16       H         20.42278135  *  18.45144994  *  22.51661049  *
    17       H         18.00065127  *  22.92444420  *  22.32910135  *
    18       H         16.68891241  *  20.89523517  *  22.29362369  *
    19       H         20.20274653  *  24.11286368  *  22.68708123  *
    20       H         22.45530177  *  25.40515539  *  22.66382611  *
    21       C         26.53104622  *  23.04016480  *  22.49035905  *
    22       C         27.20138743  *  24.27827029  *  22.47324488  *
    23       C         26.51493922  *  25.54071748  *  22.53700468  *
    24       C         25.14661052  *  25.53360581  *  22.54334076  *
    25       H         27.00296033  *  22.07620566  *  22.43214295  *
    26       H         28.27496770  *  24.30436993  *  22.22244066  *
    27       H         27.06942704  *  26.47394598  *  22.44094009  *
    28       H         24.53116553  *  26.47648170  *  22.54296826  *
    29       C         25.03873227  *  22.99178375  *  22.54608089  *
    30       C         24.35226267  *  24.30715848  *  22.53496158  *
 


          CARTESIAN COORDINATES 

    NO.       ATOM           X           Y           Z

     1         C         18.4605     19.4941     22.3905
     2         C         19.8864     19.4357     22.4813
     3         C         20.6668     20.6257     22.4723
     4         C         19.9636     21.9329     22.4740
     5         C         18.5204     21.9708     22.4528
     6         C         17.7973     20.7985     22.3165
     7         C         22.0691     20.6297     22.5105
     8         C         20.7017     23.1513     22.5671
     9         C         22.1194     23.1987     22.5402
    10         C         22.8206     21.8563     22.5053
    11         C         24.2836     21.7953     22.5833
    12         H         24.7695     20.8060     22.6526
    13         C         22.9263     24.3985     22.6123
    14         H         22.7105     19.7379     22.5491
    15         H         17.8630     18.5835     22.2992
    16         H         20.4228     18.4514     22.5166
    17         H         18.0007     22.9244     22.3291
    18         H         16.6889     20.8952     22.2936
    19         H         20.2027     24.1129     22.6871
    20         H         22.4553     25.4052     22.6638
    21         C         26.5310     23.0402     22.4904
    22         C         27.2014     24.2783     22.4732
    23         C         26.5149     25.5407     22.5370
    24         C         25.1466     25.5336     22.5433
    25         H         27.0030     22.0762     22.4321
    26         H         28.2750     24.3044     22.2224
    27         H         27.0694     26.4739     22.4409
    28         H         24.5312     26.4765     22.5430
    29         C         25.0387     22.9918     22.5461
    30         C         24.3523     24.3072     22.5350

           Empirical Formula: C18 H12  =    30 atoms



      MOLECULAR POINT GROUP   :   C1  


      RHF CALCULATION, NO. OF DOUBLY OCCUPIED LEVELS = 42

 WARNING: INDO only performs single-point calculations
  SCF CRITERION =    0.1000E-09

 Summary of symmetry occupancy in each shell:

 SHELL     
    1   42
    v   42
 TOTAL  84




    ROOT NO.    1           2           3           4           5           6

           -44.07259   -42.65883   -40.00469   -36.61040   -35.59664   -34.04414
  
  
  S  C   1   0.15045    -0.18758    -0.25338    -0.23751    -0.08207    -0.11774
 PX  C   1   0.04072    -0.04521    -0.04293    -0.00643    -0.05191    -0.08064
 PY  C   1   0.05552    -0.06674    -0.08202    -0.06521     0.01956     0.03893
 PZ  C   1   0.00134    -0.00133    -0.00067     0.00148    -0.00180    -0.00294
  
  S  C   2   0.19083    -0.20847    -0.20504    -0.08968    -0.20909    -0.28077
 PX  C   2  -0.00447     0.02214     0.06980     0.10853    -0.04243    -0.03646
 PY  C   2   0.07811    -0.07936    -0.06068    -0.00090    -0.02525    -0.02462
 PZ  C   2  -0.00293     0.00406     0.00628     0.00636     0.00159     0.00271
  
  S  C   3   0.31684    -0.25595    -0.05720     0.18005    -0.19732    -0.21064
 PX  C   3  -0.00838     0.05475     0.14183     0.13713    -0.06849    -0.03278
 PY  C   3   0.05584    -0.01941     0.06203     0.08832     0.10629     0.12609
 PZ  C   3   0.00249    -0.00059     0.00378     0.00598    -0.00189    -0.00176
  
  S  C   4   0.31751    -0.25689    -0.06283     0.14939     0.19234     0.18604
 PX  C   4   0.03964     0.01704     0.13461     0.16058    -0.03690    -0.07915
 PY  C   4  -0.03687     0.05593     0.08230     0.04988     0.13478     0.11927
 PZ  C   4   0.00287    -0.00015     0.00613     0.00881     0.00421     0.00153
  
  S  C   5   0.19624    -0.21650    -0.22232    -0.13701     0.19442     0.27115
 PX  C   5   0.05806    -0.04868    -0.00672     0.05845     0.04085     0.02591
 PY  C   5  -0.04888     0.06493     0.09515     0.09151     0.03302     0.02373
 PZ  C   5  -0.00387     0.00546     0.00881     0.00974    -0.00411    -0.00844
  
  S  C   6   0.15667    -0.19554    -0.26564    -0.25960     0.05955     0.11488
 PX  C   6   0.06893    -0.08054    -0.09137    -0.05724     0.00429     0.00512
 PY  C   6   0.00627    -0.00487     0.00232     0.01443     0.06096     0.09581
 PZ  C   6   0.00799    -0.00976    -0.01248    -0.01056     0.00239     0.00446
  
  S  C   7   0.25533    -0.10681     0.16861     0.23910    -0.30865    -0.14574
 PX  C   7  -0.04561     0.06714     0.04095    -0.08294    -0.01633     0.08360
 PY  C   7   0.07512    -0.00909     0.08776     0.05796     0.00995     0.04764
 PZ  C   7  -0.00049     0.00147     0.00136    -0.00199     0.00028     0.00202
  
  S  C   8   0.25301    -0.10514     0.16312     0.20524     0.33761     0.16913
 PX  C   8   0.04061     0.02848     0.09869     0.01181     0.00889    -0.07454
 PY  C   8  -0.07683     0.05880    -0.01381    -0.09447     0.00927    -0.04127
 PZ  C   8  -0.00460     0.00349    -0.00071    -0.00520    -0.00187    -0.00393
  
  S  C   9   0.30172     0.03779     0.30977    -0.01608     0.24022    -0.01766
 PX  C   9   0.00741     0.08321     0.01907    -0.18302    -0.08340    -0.06337
 PY  C   9  -0.05415     0.03903    -0.04597    -0.10366     0.10542    -0.05351
 PZ  C   9   0.00169     0.00157     0.00272    -0.00333     0.00541    -0.00139
  
  S  C  10   0.30671     0.03335     0.31685     0.00606    -0.20242     0.03139
 PX  C  10  -0.03879     0.07875    -0.02138    -0.18642    -0.07905     0.05791
 PY  C  10   0.03095     0.04865     0.03571    -0.10669     0.13722     0.01422
 PZ  C  10   0.00550     0.00229     0.00676    -0.00422    -0.00312     0.00171
  
  S  C  11   0.20372     0.15303     0.17054    -0.22567    -0.29833     0.20897
 PX  C  11  -0.04355     0.01730    -0.08826    -0.00029     0.01525     0.06759
 PY  C  11   0.05594     0.07391     0.01940    -0.10659     0.00953     0.03526
 PZ  C  11  -0.00359    -0.00286    -0.00296     0.00386     0.00476    -0.00307
  
  S  H  12   0.06373     0.04365     0.05335    -0.05759    -0.14920     0.10009
  
  S  C  13   0.20432     0.16435     0.15573    -0.24409     0.27255    -0.23323
 PX  C  13   0.02431     0.07320    -0.03629    -0.07879    -0.02667    -0.07747
 PY  C  13  -0.06668    -0.02542    -0.08674     0.06399    -0.00601    -0.04051
 PZ  C  13  -0.00541    -0.00452    -0.00440     0.00730    -0.00508     0.00485
  
  S  H  14   0.07979    -0.02714     0.05763     0.06399    -0.16408    -0.06293
  
  S  H  15   0.03813    -0.05002    -0.07569    -0.08511    -0.03326    -0.05095
  
  S  H  16   0.05525    -0.05823    -0.05234    -0.01466    -0.10084    -0.13234
  
  S  H  17   0.05986    -0.06431    -0.06296    -0.03907     0.10218     0.13808
  
  S  H  18   0.04009    -0.05256    -0.07976    -0.09341     0.02853     0.05627
  
  S  H  19   0.07912    -0.03085     0.04906     0.05150     0.16991     0.08080
  
  S  H  20   0.06249     0.05165     0.04131    -0.06837     0.13716    -0.11635
  
  S  C  21   0.13107     0.25149    -0.18853     0.09561    -0.15599     0.30059
 PX  C  21  -0.04050    -0.06041     0.00741     0.05680     0.03569    -0.03215
 PY  C  21   0.03260     0.07709    -0.08825     0.09051     0.02461    -0.01752
 PZ  C  21   0.00099     0.00142     0.00016    -0.00243    -0.00047    -0.00059
  
  S  C  22   0.11153     0.24474    -0.25331     0.25094    -0.04740     0.14014
 PX  C  22  -0.04823    -0.09907     0.08548    -0.05367     0.00432    -0.00879
 PY  C  22  -0.00123     0.00231    -0.01450     0.03543     0.04618    -0.09503
 PZ  C  22   0.00068     0.00112    -0.00015    -0.00184     0.00115    -0.00347
  
  S  C  23   0.11366     0.25043    -0.26166     0.26192     0.06013    -0.09991
 PX  C  23  -0.02928    -0.05709     0.04131    -0.00770    -0.03928     0.08577
 PY  C  23  -0.03984    -0.08407     0.07814    -0.06098     0.01717    -0.04787
 PZ  C  23  -0.00195    -0.00467     0.00576    -0.00729     0.00000    -0.00100
  
  S  C  24   0.14277     0.27550    -0.21034     0.10823     0.15320    -0.28164
 PX  C  24   0.00584     0.03524    -0.07822     0.12305    -0.03481     0.05535
 PY  C  24  -0.05287    -0.09358     0.05206     0.00542    -0.00941     0.01107
 PZ  C  24  -0.00051    -0.00152     0.00237    -0.00323     0.00049    -0.00100
  
  S  H  25   0.04101     0.07504    -0.04971     0.01729    -0.08305     0.15149
  
  S  H  26   0.02937     0.06779    -0.07860     0.09367    -0.01996     0.06205
  
  S  H  27   0.03015     0.06986    -0.08172     0.09804     0.02626    -0.04704
  
  S  H  28   0.04430     0.08116    -0.05423     0.01709     0.08235    -0.14831
  
  S  C  29   0.22858     0.31368    -0.03009    -0.19491    -0.17873     0.22297
 PX  C  29  -0.03947     0.00413    -0.12067     0.14915    -0.02063     0.08325
 PY  C  29   0.02588     0.06976    -0.07893     0.05008     0.09930    -0.11288
 PZ  C  29  -0.00056    -0.00206     0.00317    -0.00331     0.00120    -0.00317
  
  S  C  30   0.23573     0.32985    -0.04501    -0.19518     0.13480    -0.21966
 PX  C  30  -0.00138     0.05846    -0.13287     0.13399    -0.06892     0.07502
 PY  C  30  -0.04033    -0.02258    -0.06527     0.09601     0.09208    -0.14371
 PZ  C  30   0.00291     0.00317     0.00193    -0.00610     0.00377    -0.00607




    ROOT NO.    7           8           9          10          11          12

           -31.72178   -31.19869   -28.69360   -28.16034   -26.81351   -26.00015
  
  
  S  C   1   0.11044     0.31160     0.15298     0.28790    -0.00522     0.20732
 PX  C   1   0.11128    -0.04844     0.11859    -0.13693     0.05188     0.05840
 PY  C   1  -0.06677     0.00874    -0.08831    -0.02079    -0.08355    -0.08659
 PZ  C   1   0.00487    -0.00669     0.00517    -0.01326     0.00343     0.00037
  
  S  C   2   0.27610     0.03759     0.18409    -0.10308     0.15039     0.00123
 PX  C   2  -0.00112    -0.14422    -0.11197    -0.13202     0.05130    -0.21102
 PY  C   2   0.01027    -0.07755    -0.04117    -0.10091    -0.09670    -0.06770
 PZ  C   2  -0.00340    -0.00751    -0.00597    -0.00565     0.00164    -0.00873
  
  S  C   3   0.12948    -0.21663    -0.07873    -0.13950    -0.10477    -0.16358
 PX  C   3  -0.07375     0.01105    -0.15936     0.12997     0.05511    -0.10005
 PY  C   3  -0.08239    -0.03764    -0.00093     0.09482    -0.19555     0.13623
 PZ  C   3   0.00074    -0.00330    -0.00186     0.00037     0.00159    -0.00343
  
  S  C   4  -0.01343    -0.26320     0.13945    -0.09311    -0.08231     0.21127
 PX  C   4   0.10111     0.03361     0.01910     0.16448    -0.12600    -0.04168
 PY  C   4  -0.01376     0.02385     0.09656     0.09966     0.17775     0.07969
 PZ  C   4   0.00596    -0.00238     0.00956     0.00641     0.00313     0.00620
  
  S  C   5  -0.25878    -0.11171    -0.13767    -0.16097     0.10901    -0.05504
 PX  C   5   0.06306    -0.13195     0.16539    -0.09860    -0.00951     0.22303
 PY  C   5   0.02720    -0.07130     0.07639    -0.02187     0.11951     0.07628
 PZ  C   5   0.01493    -0.00388     0.01795     0.00159    -0.00262     0.01819
  
  S  C   6  -0.20936     0.21782    -0.23631     0.19471    -0.06129    -0.20037
 PX  C   6   0.00848    -0.02189     0.04754    -0.08114    -0.02936     0.08227
 PY  C   6  -0.11188    -0.11317    -0.11781    -0.15880     0.05479    -0.14166
 PZ  C   6  -0.00693     0.00371    -0.00613    -0.00176    -0.00358    -0.00390
  
  S  C   7  -0.17970    -0.02701    -0.25272     0.09250     0.15362    -0.03503
 PX  C   7  -0.15409     0.12105     0.04238     0.03590     0.13863     0.19365
 PY  C   7  -0.07235     0.06254     0.00567     0.09592    -0.15164     0.11964
 PZ  C   7  -0.00252     0.00275     0.00252    -0.00059     0.00459     0.00362
  
  S  C   8   0.15871     0.04235     0.20401     0.16154     0.18493    -0.01574
 PX  C   8   0.08258     0.17740    -0.06895     0.07263    -0.09034    -0.18420
 PY  C   8   0.04573     0.09665    -0.02643    -0.03777     0.17852    -0.13347
 PZ  C   8   0.00317     0.00556    -0.00071    -0.00221     0.01141    -0.00779
  
  S  C   9   0.16838     0.29284    -0.01572    -0.01335    -0.08148    -0.17695
 PX  C   9  -0.06974    -0.00243    -0.07758    -0.19793    -0.11856     0.07407
 PY  C   9   0.10931     0.00314    -0.04941    -0.11204     0.21434    -0.10572
 PZ  C   9   0.00551     0.00567    -0.00050    -0.00397     0.01044    -0.00770
  
  S  C  10  -0.25420     0.19969    -0.00919     0.01333    -0.08503     0.17810
 PX  C  10  -0.06817    -0.01562     0.13466    -0.15805     0.12317     0.05710
 PY  C  10   0.13920     0.05406     0.07529    -0.09563    -0.21631    -0.09537
 PZ  C  10  -0.00508     0.00596     0.00414    -0.00433     0.00214     0.00368
  
  S  C  11  -0.15738    -0.00513     0.26319    -0.09079     0.16838    -0.01025
 PX  C  11   0.14700    -0.11871     0.04577     0.07266     0.04596    -0.19285
 PY  C  11   0.08344    -0.05361     0.05141    -0.04642    -0.18447    -0.09542
 PZ  C  11   0.00241    -0.00079    -0.00171     0.00201     0.00331    -0.00219
  
  S  H  12  -0.08245    -0.00515     0.10906    -0.00171     0.20667    -0.00501
  
  S  C  13   0.12797     0.03670    -0.22453    -0.17215     0.17137     0.02357
 PX  C  13  -0.08383    -0.16851    -0.04258     0.01614    -0.09546     0.19388
 PY  C  13  -0.05118    -0.10046    -0.03560     0.09559     0.15549     0.09177
 PZ  C  13  -0.00224    -0.00083     0.00403     0.00556     0.00506    -0.00169
  
  S  H  14  -0.10677    -0.00269    -0.10667     0.01230     0.21282    -0.00759
  
  S  H  15   0.05142     0.16414     0.08172     0.19824     0.02130     0.13071
  
  S  H  16   0.12468     0.01730     0.07658    -0.03616     0.14578    -0.02548
  
  S  H  17  -0.12918    -0.05397    -0.07370    -0.06384     0.12713    -0.05437
  
  S  H  18  -0.11082     0.11203    -0.14936     0.13466    -0.01029    -0.15826
  
  S  H  19   0.07809     0.02211     0.10069     0.03930     0.22343    -0.03050
  
  S  H  20   0.05311     0.00580    -0.11360    -0.03580     0.20372     0.01149
  
  S  C  21   0.29798    -0.01138    -0.21401     0.11783     0.12745     0.02372
 PX  C  21  -0.00658     0.12940    -0.11796    -0.13459     0.05317     0.18221
 PY  C  21   0.00017     0.07119    -0.07540    -0.04890    -0.09033     0.11472
 PZ  C  21  -0.00166    -0.00625     0.00712     0.00710    -0.00319    -0.00997
  
  S  C  22   0.11122     0.27180    -0.18641    -0.25566    -0.00230     0.21304
 PX  C  22  -0.00089     0.02887    -0.02400    -0.09699     0.04325     0.06914
 PY  C  22  -0.14578     0.07161     0.16721    -0.12079    -0.07146    -0.09937
 PZ  C  22  -0.00396    -0.00864     0.00892     0.01427    -0.00451    -0.01447
  
  S  C  23  -0.21499     0.23065     0.23478    -0.19778    -0.03486    -0.17241
 PX  C  23   0.08384     0.10201    -0.08278    -0.18294    -0.02564     0.08439
 PY  C  23  -0.06128    -0.03119     0.09883     0.01003     0.05514    -0.10763
 PZ  C  23   0.00213    -0.01130    -0.00182     0.01430     0.00128    -0.00112
  
  S  C  24  -0.25826    -0.10432     0.14687     0.18202     0.10303    -0.04427
 PX  C  24  -0.05177     0.14341     0.15426    -0.08553    -0.08086    -0.18281
 PY  C  24  -0.03675     0.07708     0.08160    -0.07598     0.07754    -0.09103
 PZ  C  24   0.00091    -0.00357    -0.00196     0.00252     0.00142     0.00157
  
  S  H  25   0.14446    -0.00927    -0.09541     0.05087     0.13455    -0.00233
  
  S  H  26   0.05228     0.15000    -0.10476    -0.18556     0.02322     0.14925
  
  S  H  27  -0.11121     0.12812     0.14228    -0.14920     0.00239    -0.11811
  
  S  H  28  -0.12255    -0.05706     0.05627     0.07705     0.12552    -0.00596
  
  S  C  29   0.14086    -0.21680     0.11946     0.10967    -0.10616    -0.18643
 PX  C  29   0.10879    -0.00686    -0.09405     0.15959     0.11418    -0.05560
 PY  C  29   0.01268    -0.04366    -0.12976     0.07070    -0.15404     0.10084
 PZ  C  29  -0.00386    -0.00062     0.00464    -0.00374     0.00061    -0.00090
  
  S  C  30  -0.02133    -0.26086    -0.11272     0.09691    -0.09255     0.16068
 PX  C  30  -0.03053    -0.04784     0.10318     0.18330    -0.07227    -0.08200
 PY  C  30  -0.09621    -0.02220    -0.04814     0.10073     0.18971     0.09793
 PZ  C  30  -0.00052    -0.00498    -0.00414    -0.00165     0.00190     0.00541




    ROOT NO.   13          14          15          16          17          18

           -25.13132   -23.78693   -22.76385   -21.66591   -20.38638   -19.41101
  
  
  S  C   1  -0.00061    -0.13311    -0.00604    -0.16412    -0.02250    -0.02002
 PX  C   1   0.04174     0.24200    -0.01836     0.02658     0.22050     0.17042
 PY  C   1  -0.13988     0.02307     0.20691     0.11555    -0.13771     0.18537
 PZ  C   1   0.00276     0.02141    -0.00082     0.00683     0.01997     0.01812
  
  S  C   2   0.17883     0.17167    -0.13989     0.11593     0.10596     0.03327
 PX  C   2   0.07081    -0.05066    -0.05044     0.14873    -0.16159    -0.12651
 PY  C   2  -0.16868     0.02122     0.21305     0.07239    -0.14804     0.06545
 PZ  C   2   0.00316    -0.00157    -0.00388     0.00826    -0.00419    -0.00564
  
  S  C   3  -0.11193    -0.09808     0.02870     0.08641    -0.06943    -0.13741
 PX  C   3   0.12709    -0.18516    -0.13983    -0.10965    -0.01175    -0.03310
 PY  C   3  -0.19437    -0.07665     0.02304    -0.10647     0.15165    -0.07866
 PZ  C   3   0.00303    -0.00598    -0.00299     0.00375    -0.00584    -0.00414
  
  S  C   4  -0.10772    -0.08865     0.01575    -0.09512    -0.04154    -0.13520
 PX  C   4  -0.08217    -0.15330    -0.06907     0.16673     0.09162    -0.06791
 PY  C   4   0.22447    -0.10048    -0.14564    -0.00089    -0.09023     0.02524
 PZ  C   4   0.00305    -0.01307    -0.00020     0.00813    -0.01351    -0.00039
  
  S  C   5   0.14874     0.15274    -0.12204    -0.11238     0.11785     0.00169
 PX  C   5  -0.07929    -0.00432     0.13316    -0.16839    -0.17054    -0.01389
 PY  C   5   0.16565    -0.05285    -0.17577    -0.10111    -0.01458    -0.16605
 PZ  C   5  -0.00908    -0.01011     0.01452    -0.00556    -0.02287     0.00036
  
  S  C   6  -0.03346    -0.12782     0.02242     0.15974    -0.07225     0.01838
 PX  C   6  -0.08675     0.14870     0.15470    -0.10253     0.03229     0.21380
 PY  C   6   0.09503     0.18001    -0.11971     0.06751     0.23550     0.03383
 PZ  C   6  -0.00645     0.00986     0.01130     0.00195     0.00438     0.02098
  
  S  C   7   0.11438    -0.11006     0.07264    -0.21264    -0.04584     0.13692
 PX  C   7   0.03628     0.16324     0.15724    -0.07162     0.02892     0.17185
 PY  C   7  -0.10146     0.09403    -0.06032    -0.00141     0.21038    -0.00441
 PZ  C   7   0.00161     0.00358     0.00500     0.00257    -0.00366     0.00119
  
  S  C   8   0.11949    -0.10558     0.07219     0.19358    -0.08501     0.14658
 PX  C   8  -0.09268     0.15859     0.05200     0.08700     0.19175     0.06971
 PY  C   8   0.06713     0.06726     0.18402     0.04055    -0.10161     0.13372
 PZ  C   8   0.00344     0.00151     0.01752     0.00636    -0.01516     0.01213
  
  S  C   9  -0.01085     0.22192    -0.01584    -0.00996     0.00420    -0.01945
 PX  C   9   0.00578     0.04054    -0.11774    -0.19810    -0.15195    -0.15884
 PY  C   9  -0.01078    -0.08333     0.22864    -0.12338    -0.07195    -0.09227
 PZ  C   9   0.00023     0.00060     0.01600    -0.00174    -0.00587    -0.00434
  
  S  C  10   0.01957     0.24450    -0.06616     0.00375    -0.00510     0.01491
 PX  C  10   0.01818    -0.02437     0.10734     0.14341    -0.19140    -0.13565
 PY  C  10  -0.00139     0.07270    -0.20373     0.08516    -0.10117    -0.08891
 PZ  C  10   0.00059     0.00585     0.00442     0.00834    -0.00586    -0.00866
  
  S  C  11  -0.13527    -0.09118     0.06136     0.22682     0.05338    -0.17519
 PX  C  11  -0.11321    -0.17162    -0.04007    -0.03254     0.20036     0.03995
 PY  C  11   0.06523    -0.07941    -0.15044    -0.04900    -0.10798     0.12578
 PZ  C  11  -0.00281    -0.00381     0.00475     0.00428     0.01120    -0.00950
  
  S  H  12  -0.13699    -0.05099     0.11052     0.12804     0.15200    -0.15497
  
  S  C  13  -0.13534    -0.10724     0.07026    -0.20560     0.09261    -0.14800
 PX  C  13   0.03375    -0.13530    -0.17073     0.09685    -0.00342     0.17909
 PY  C  13  -0.11114    -0.08665     0.03145     0.06628     0.21506    -0.00157
 PZ  C  13  -0.00150    -0.00036     0.00761     0.00250     0.00867    -0.00566
  
  S  H  14   0.12020    -0.04809     0.13398    -0.12675    -0.12540     0.13641
  
  S  H  15   0.05693    -0.16794    -0.11023    -0.16324    -0.01790    -0.19700
  
  S  H  16   0.20675     0.05862    -0.20761     0.05900     0.08912    -0.06362
  
  S  H  17   0.19485     0.04972    -0.20540    -0.05907     0.10771    -0.09646
  
  S  H  18   0.04191    -0.15102    -0.09790     0.15765    -0.04714    -0.14849
  
  S  H  19   0.12612    -0.06546     0.12904     0.09016    -0.16372     0.13387
  
  S  H  20  -0.14538    -0.06723     0.09852    -0.08492     0.17823    -0.13024
  
  S  C  21  -0.16811     0.17093    -0.12151    -0.13368    -0.11183     0.00343
 PX  C  21  -0.08013     0.02423    -0.13481     0.14625    -0.21735    -0.02353
 PY  C  21   0.18311     0.03924     0.15620     0.11454    -0.03377    -0.19019
 PZ  C  21   0.00631    -0.00003     0.01273    -0.00846     0.01514    -0.01354
  
  S  C  22   0.03254    -0.11405     0.00693     0.18451     0.02857    -0.03093
 PX  C  22  -0.09618    -0.13360    -0.15182     0.11893    -0.01510     0.23807
 PY  C  22   0.07759    -0.19201     0.09765    -0.03714     0.25649     0.05891
 PZ  C  22   0.00935     0.01504     0.01915    -0.02255     0.00690    -0.03607
  
  S  C  23  -0.02492    -0.11304    -0.00460    -0.16937     0.05021     0.02382
 PX  C  23   0.03221    -0.23648     0.00408     0.01674     0.21343     0.19823
 PY  C  23  -0.15386    -0.01399    -0.18563    -0.13598    -0.12902     0.21992
 PZ  C  23   0.00099     0.01510     0.00430    -0.00136    -0.00836    -0.02181
  
  S  C  24  -0.14965     0.17616    -0.11004     0.11541    -0.13149    -0.04005
 PX  C  24   0.06473     0.04523     0.07188    -0.20215    -0.10334    -0.15869
 PY  C  24  -0.18784    -0.00594    -0.18913    -0.08412    -0.15294     0.07252
 PZ  C  24  -0.00105     0.00058     0.00035    -0.00025     0.00061    -0.00628
  
  S  H  25  -0.21716     0.07285    -0.19363    -0.09051    -0.10235     0.11052
  
  S  H  26  -0.04145    -0.14864    -0.09626     0.17854     0.00836     0.16672
  
  S  H  27  -0.08426    -0.14588    -0.10676    -0.16353     0.02716     0.23155
  
  S  H  28  -0.20227     0.06646    -0.18266     0.08000    -0.10918     0.07811
  
  S  C  29   0.09021    -0.12005     0.02655    -0.09112     0.07433     0.14257
 PX  C  29  -0.09331     0.14453     0.05328    -0.15904     0.13543    -0.04637
 PY  C  29   0.25399     0.08907     0.12850    -0.05260    -0.07863     0.06396
 PZ  C  29  -0.00143    -0.00850     0.00097     0.00733     0.00611    -0.00808
  
  S  C  30   0.15073    -0.09935     0.01800     0.09390     0.03576     0.16567
 PX  C  30   0.14694     0.15216     0.14828     0.08915     0.00179    -0.02830
 PY  C  30  -0.18359     0.08101    -0.03240     0.15517     0.12415    -0.08511
 PZ  C  30  -0.00191    -0.00843    -0.00125     0.00013     0.00571    -0.00179




    ROOT NO.   19          20          21          22          23          24

           -18.35285   -17.31181   -16.90486   -16.72491   -16.03911   -15.30807
  
  
  S  C   1  -0.16009    -0.00128     0.02486     0.10242     0.05497     0.05546
 PX  C   1   0.05777    -0.19236    -0.06154    -0.03005     0.18996     0.10014
 PY  C   1   0.12367     0.17189     0.08592    -0.10090     0.18867     0.12512
 PZ  C   1   0.01400    -0.01847    -0.01064    -0.01703     0.02540    -0.00710
  
  S  C   2   0.16320    -0.00314     0.00933    -0.07175     0.00367     0.03689
 PX  C   2   0.11005     0.20687     0.06249    -0.04782    -0.20138    -0.09005
 PY  C   2  -0.04492     0.04639     0.14487     0.26193    -0.02176     0.26721
 PZ  C   2   0.01528     0.00730    -0.00560    -0.02033    -0.00602    -0.02427
  
  S  C   3  -0.04468    -0.08036     0.07266     0.19763    -0.06502     0.00742
 PX  C   3  -0.17770     0.02671     0.02285    -0.00691     0.23429    -0.11146
 PY  C   3  -0.03905    -0.24062    -0.15335    -0.06000    -0.03220    -0.15218
 PZ  C   3   0.00876     0.00441    -0.00456    -0.01064     0.00546    -0.01550
  
  S  C   4   0.08555     0.00686    -0.11607    -0.16889    -0.11643    -0.04702
 PX  C   4   0.15072    -0.21518    -0.07836     0.03770     0.08264     0.12014
 PY  C   4   0.10799     0.18075     0.03107    -0.12511     0.17860     0.13639
 PZ  C   4   0.02320    -0.00059     0.00442    -0.00983     0.01579    -0.01654
  
  S  C   5  -0.17743     0.02391     0.00541     0.06109     0.00168    -0.01778
 PX  C   5  -0.01792     0.21883     0.02298    -0.15468    -0.13114    -0.11501
 PY  C   5  -0.07852     0.03380     0.12555     0.21440    -0.11017     0.26997
 PZ  C   5   0.01347     0.01660     0.00487    -0.01965    -0.00043    -0.02369
  
  S  C   6   0.16622     0.02785    -0.01621    -0.12211     0.04302    -0.03808
 PX  C   6  -0.20500     0.07406     0.01070     0.01583     0.23747    -0.06132
 PY  C   6  -0.00505    -0.21993    -0.12976    -0.01657     0.02376    -0.14839
 PZ  C   6  -0.00354    -0.00038    -0.00505    -0.01240     0.03013    -0.02466
  
  S  C   7  -0.12189    -0.01417    -0.03224    -0.06909     0.09353    -0.01942
 PX  C   7   0.14825    -0.00285    -0.08963    -0.13594    -0.16602     0.09411
 PY  C   7   0.09873    -0.15134     0.19560     0.11178    -0.00491    -0.08935
 PZ  C   7   0.00774     0.00568    -0.01549    -0.01002    -0.00166     0.00135
  
  S  C   8   0.08411    -0.04722    -0.00241     0.03938     0.09321     0.00755
 PX  C   8  -0.17105     0.01265    -0.14675    -0.00452    -0.13667     0.03555
 PY  C   8  -0.11098    -0.10557     0.16580     0.22892    -0.03966    -0.19812
 PZ  C   8   0.00065    -0.01899     0.02508     0.02351     0.00940    -0.04221
  
  S  C   9  -0.13987     0.18174    -0.12818    -0.02063    -0.10020     0.05515
 PX  C   9   0.04910     0.09695     0.06325    -0.02435     0.04750    -0.01890
 PY  C   9  -0.05577    -0.18516    -0.15428    -0.01433    -0.11375    -0.05938
 PZ  C   9  -0.00214    -0.01767     0.00049     0.00337     0.00341    -0.02083
  
  S  C  10   0.13385     0.03576     0.25149     0.04944    -0.05438    -0.05882
 PX  C  10   0.07029    -0.12717     0.01257     0.06323    -0.08319    -0.07027
 PY  C  10  -0.07036     0.24168     0.00951    -0.00317     0.07456     0.05186
 PZ  C  10   0.00484     0.00019    -0.01099     0.00363     0.00501     0.00026
  
  S  C  11  -0.06854    -0.01844    -0.04952     0.03682     0.06634     0.00055
 PX  C  11  -0.18559     0.12294    -0.14066    -0.07857     0.14532     0.08069
 PY  C  11  -0.10155    -0.09629     0.26857    -0.16472     0.11571    -0.16879
 PZ  C  11  -0.00617     0.01023    -0.03350     0.00518     0.02105     0.02380
  
  S  H  12  -0.02732     0.11023    -0.29676     0.11192     0.00539     0.16375
  
  S  C  13   0.11214    -0.04788     0.01966    -0.05559     0.07602     0.02664
 PX  C  13   0.12851     0.08864    -0.12310     0.14735     0.19008     0.08784
 PY  C  13   0.09780    -0.06293     0.30240    -0.07739     0.05354    -0.01071
 PZ  C  13   0.00327    -0.01564     0.02605    -0.00943     0.01448    -0.00994
  
  S  H  14  -0.05612     0.09364    -0.21772    -0.17880    -0.02805     0.10628
  
  S  H  15  -0.19044    -0.03032    -0.01858     0.13804    -0.19848    -0.11188
  
  S  H  16   0.15221     0.05113    -0.08475    -0.25847    -0.06256    -0.22748
  
  S  H  17  -0.13856    -0.05355     0.09282     0.26003    -0.02499     0.24730
  
  S  H  18   0.24604    -0.06140    -0.02338    -0.07313    -0.18086     0.02918
  
  S  H  19   0.02678    -0.11747     0.19200     0.19618     0.07834    -0.16125
  
  S  H  20   0.07739    -0.11115     0.29543    -0.14495     0.01299    -0.02642
  
  S  C  21   0.14970     0.00242     0.00190     0.07287     0.00852     0.01888
 PX  C  21  -0.03223    -0.13554    -0.18015     0.10040     0.17086    -0.11791
 PY  C  21  -0.09140    -0.16087     0.06198    -0.18296     0.08163     0.30028
 PZ  C  21   0.00711     0.01095     0.00916    -0.00555     0.02804     0.02649
  
  S  C  22  -0.14313    -0.00874     0.04019    -0.10010     0.03351     0.04146
 PX  C  22  -0.17092    -0.04655    -0.03200    -0.05493    -0.21700    -0.07974
 PY  C  22   0.02554     0.25142     0.08003     0.06240    -0.04851    -0.18378
 PZ  C  22   0.03646     0.01622     0.00537     0.01706     0.06395     0.01801
  
  S  C  23   0.15106     0.02616    -0.03076     0.09154     0.06721    -0.03162
 PX  C  23   0.07423     0.14576     0.09686     0.07025    -0.18007     0.07202
 PY  C  23   0.09950    -0.17775    -0.07750     0.04567    -0.16120     0.14035
 PZ  C  23   0.00375    -0.00259    -0.00182    -0.00106     0.04490     0.00248
  
  S  C  24  -0.16538     0.00573    -0.00078    -0.06484    -0.01797    -0.05308
 PX  C  24   0.10394    -0.13540    -0.11741     0.01270     0.21926    -0.06458
 PY  C  24  -0.05851    -0.17559     0.08598    -0.20060    -0.00675     0.21283
 PZ  C  24   0.00451    -0.00197     0.00165    -0.00058     0.03154     0.00367
  
  S  H  25   0.12958     0.07544    -0.12195     0.21670     0.01264    -0.27012
  
  S  H  26  -0.20991    -0.03958    -0.00614    -0.09684    -0.18068    -0.05481
  
  S  H  27   0.17588    -0.04970    -0.02821     0.10991    -0.16738     0.12343
  
  S  H  28  -0.16019    -0.06176     0.13243    -0.18996    -0.11012     0.16485
  
  S  C  29  -0.07557    -0.08962     0.13415    -0.15770    -0.08376     0.04378
 PX  C  29   0.13651     0.18191     0.10660     0.01071    -0.13354     0.11463
 PY  C  29   0.11789    -0.12601    -0.12057     0.08394    -0.20454     0.08068
 PZ  C  29  -0.00774     0.00110    -0.01241    -0.00209     0.04144     0.01247
  
  S  C  30   0.04937     0.01987    -0.17038     0.16102    -0.04678    -0.02615
 PX  C  30  -0.14206    -0.02799     0.05519    -0.03810    -0.23639    -0.11124
 PY  C  30  -0.03661     0.26185     0.05184     0.08402     0.02930    -0.10730
 PZ  C  30   0.00862    -0.00348    -0.00098     0.00190     0.03995     0.00568




    ROOT NO.   25          26          27          28          29          30

           -15.07941   -14.81638   -14.66175   -14.40626   -13.82162   -13.36214
  
  
  S  C   1   0.00153     0.03541    -0.00084     0.00643     0.06479     0.00566
 PX  C   1   0.26458    -0.06338     0.00959    -0.01946     0.12143     0.03618
 PY  C   1  -0.02541    -0.03994     0.25639     0.02252     0.08908     0.12355
 PZ  C   1   0.01970    -0.03532    -0.02780     0.13719     0.08913    -0.18336
  
  S  C   2   0.04006    -0.03352     0.07650     0.02038    -0.03564    -0.00080
 PX  C   2  -0.24451     0.04713     0.02894     0.00616    -0.16770    -0.02042
 PY  C   2   0.16066     0.11605    -0.00702     0.05333    -0.06038    -0.10194
 PZ  C   2  -0.01830    -0.03355    -0.03680     0.18687     0.07764    -0.20550
  
  S  C   3   0.00506    -0.01438    -0.03756    -0.01432     0.01608     0.00109
 PX  C   3  -0.15210    -0.10533     0.05835    -0.05344     0.24127     0.08268
 PY  C   3   0.05358    -0.07334    -0.09407    -0.03533     0.04000     0.06344
 PZ  C   3  -0.01178    -0.04595    -0.06313     0.29922     0.11587    -0.24481
  
  S  C   4   0.05344     0.01717    -0.02649    -0.01030     0.00346     0.02355
 PX  C   4   0.14775     0.07119    -0.04670    -0.03328     0.17430     0.06175
 PY  C   4  -0.00681     0.05141     0.12417    -0.00680     0.17357     0.02846
 PZ  C   4   0.00118    -0.05975    -0.06186     0.29147     0.11944    -0.24262
  
  S  C   5  -0.10524     0.04079    -0.00633     0.02590    -0.00992    -0.02934
 PX  C   5  -0.07931    -0.07561     0.06800     0.01571    -0.16890    -0.02234
 PY  C   5   0.14854     0.05332     0.19244     0.08088    -0.08146     0.05619
 PZ  C   5  -0.00529    -0.04870    -0.03288     0.18630     0.07617    -0.21489
  
  S  C   6  -0.00764    -0.04517     0.02989    -0.02542     0.03435     0.03661
 PX  C   6  -0.26051     0.05818    -0.00436    -0.05916     0.15542     0.06758
 PY  C   6   0.01923     0.00197    -0.24814    -0.06369     0.04708    -0.08106
 PZ  C   6  -0.02266    -0.02797    -0.03759     0.13545     0.09508    -0.19165
  
  S  C   7   0.06534    -0.02172     0.00061     0.00163    -0.01114     0.00111
 PX  C   7   0.17627     0.09708    -0.03081     0.04452    -0.25464    -0.06617
 PY  C   7  -0.09982    -0.26663     0.23459     0.02398    -0.15674     0.01134
 PZ  C   7  -0.00586    -0.02461    -0.06293     0.26640     0.06883    -0.11137
  
  S  C   8  -0.01318     0.02887    -0.06481    -0.02734     0.00783    -0.01178
 PX  C   8  -0.13821     0.24773    -0.02431     0.04599    -0.16472    -0.00584
 PY  C   8  -0.04114    -0.21644    -0.08283    -0.04927    -0.18231    -0.04406
 PZ  C   8  -0.00929    -0.07923    -0.06733     0.25649     0.05100    -0.10880
  
  S  C   9   0.01652     0.00299    -0.01063     0.00349     0.00786     0.00646
 PX  C   9   0.15744    -0.26880     0.02543    -0.02602     0.16573     0.01091
 PY  C   9   0.10397    -0.12319     0.05252    -0.04494     0.08528     0.12572
 PZ  C   9  -0.01343    -0.04909    -0.06229     0.30883     0.03627     0.04305
  
  S  C  10  -0.01747    -0.02814     0.02005    -0.00687    -0.01521    -0.01996
 PX  C  10  -0.01090     0.18586    -0.15964    -0.06715     0.25717     0.10638
 PY  C  10  -0.01226     0.09290    -0.12824    -0.01366     0.15006    -0.04996
 PZ  C  10  -0.02209    -0.03481    -0.06978     0.30491     0.04626     0.03430
  
  S  C  11  -0.07943     0.02838    -0.00360    -0.01236     0.04344     0.01312
 PX  C  11   0.01731    -0.14630     0.13212     0.03401    -0.23558    -0.10695
 PY  C  11   0.15509     0.20754    -0.09916     0.02141    -0.11859    -0.00332
 PZ  C  11  -0.03202    -0.04792    -0.03911     0.23143    -0.02709     0.15036
  
  S  H  12  -0.14541    -0.19925     0.12070     0.00500     0.02389    -0.02522
  
  S  C  13   0.01842    -0.01285     0.05569     0.00961    -0.00200    -0.01345
 PX  C  13  -0.06643    -0.05218    -0.16806    -0.03771    -0.24260    -0.10273
 PY  C  13  -0.15251     0.31247     0.05505     0.04797    -0.04039    -0.08716
 PZ  C  13  -0.02496     0.00128    -0.03851     0.24243    -0.01789     0.16086
  
  S  H  14   0.18077     0.22461    -0.18532     0.01310    -0.01144    -0.04428
  
  S  H  15  -0.10976     0.08307    -0.19990    -0.01428    -0.10841    -0.10278
  
  S  H  16  -0.20790    -0.08249     0.04927    -0.02427    -0.04303     0.06859
  
  S  H  17   0.09877     0.09067     0.12203     0.05208    -0.01102     0.06081
  
  S  H  18   0.23560    -0.07526     0.00401     0.03391    -0.13094    -0.04741
  
  S  H  19   0.01742    -0.25942    -0.08295    -0.04199    -0.06524    -0.05016
  
  S  H  20  -0.08579     0.25367     0.12176     0.06539     0.06341    -0.02843
  
  S  C  21  -0.04005     0.01482    -0.09531    -0.02646     0.03191     0.01362
 PX  C  21  -0.06313     0.17918     0.07956     0.05386    -0.10258     0.03275
 PY  C  21  -0.23243    -0.08691    -0.11264    -0.05193    -0.06183    -0.08255
 PZ  C  21  -0.02039    -0.02494    -0.07657     0.12881    -0.07327     0.23742
  
  S  C  22   0.02518    -0.04867    -0.03244    -0.00236    -0.05259     0.00789
 PX  C  22   0.08767    -0.03172     0.27295     0.09107     0.06798     0.01065
 PY  C  22   0.25185    -0.01981    -0.06026    -0.01216     0.04102     0.07607
 PZ  C  22  -0.02583     0.00077    -0.11540     0.09279    -0.08936     0.24490
  
  S  C  23  -0.02284     0.05758    -0.01946     0.00535    -0.03852    -0.00187
 PX  C  23  -0.07225    -0.03970    -0.24694    -0.05642     0.12866     0.12332
 PY  C  23  -0.25616     0.02843     0.09752     0.02523     0.08213    -0.03649
 PZ  C  23  -0.00703    -0.00119    -0.05335     0.11645    -0.09007     0.24378
  
  S  C  24   0.10418    -0.04227     0.03059     0.00672     0.02109     0.02000
 PX  C  24   0.01884     0.08154     0.22370     0.05650    -0.15641    -0.12442
 PY  C  24  -0.03055    -0.14893    -0.13234    -0.04229    -0.08466     0.02434
 PZ  C  24  -0.01342    -0.00416    -0.05037     0.15387    -0.08273     0.26065
  
  S  H  25   0.13534     0.14503     0.07931     0.04245     0.02988     0.07663
  
  S  H  26   0.09762    -0.05317     0.25175     0.06202     0.05900    -0.03705
  
  S  H  27  -0.24221     0.03441    -0.04424    -0.01284     0.11829     0.00969
  
  S  H  28   0.01654    -0.16229    -0.19641    -0.05704     0.02626     0.09172
  
  S  C  29   0.01774    -0.00255     0.03050     0.02297    -0.03829    -0.00558
 PX  C  29   0.02242    -0.17876    -0.11862    -0.05750     0.12178    -0.01311
 PY  C  29  -0.13712    -0.03661     0.11055     0.02584     0.15270     0.07772
 PZ  C  29  -0.02618    -0.02518    -0.06113     0.24074    -0.08638     0.28319
  
  S  C  30  -0.06761     0.01432     0.05496     0.00731    -0.01995    -0.01097
 PX  C  30   0.01071     0.09389     0.16213     0.06505     0.23780     0.11406
 PY  C  30   0.08844     0.01442    -0.09938    -0.03079     0.04902    -0.02049
 PZ  C  30  -0.02525    -0.01392    -0.06297     0.24746    -0.08831     0.29300




    ROOT NO.   31          32          33          34          35          36

           -13.07013   -12.96113   -12.19959   -11.82080   -11.64138   -11.52249
  
  
  S  C   1  -0.01622     0.00050     0.00220    -0.00012    -0.01122     0.02023
 PX  C   1   0.20043    -0.13948    -0.09846    -0.01577     0.08074     0.13297
 PY  C   1  -0.18533    -0.16456     0.13715    -0.09888    -0.03434     0.04758
 PZ  C   1  -0.06150    -0.08020    -0.06953     0.08456    -0.27329     0.08616
  
  S  C   2  -0.00945    -0.02219    -0.02596     0.03776     0.01105    -0.02519
 PX  C   2  -0.17326     0.15631     0.07399     0.03853    -0.03406    -0.16403
 PY  C   2   0.10421     0.14521    -0.16435     0.16776     0.04175    -0.09420
 PZ  C   2  -0.10523    -0.06587    -0.03354     0.05715    -0.20570     0.04276
  
  S  C   3  -0.00321     0.03187     0.00671    -0.00519    -0.00727     0.01812
 PX  C   3   0.07734    -0.11082    -0.12610     0.03535     0.08655     0.20978
 PY  C   3  -0.06514    -0.14525     0.22401    -0.24079    -0.09260     0.07681
 PZ  C   3  -0.10949    -0.06332    -0.02096     0.02273    -0.04684     0.00427
  
  S  C   4   0.01755    -0.03362     0.01774    -0.00602    -0.00034    -0.00391
 PX  C   4  -0.15508     0.15592     0.19067    -0.03292    -0.10301    -0.19815
 PY  C   4   0.04201     0.12366    -0.18717     0.24392     0.08842    -0.08605
 PZ  C   4  -0.08789    -0.04852    -0.02712     0.02913    -0.05427    -0.01103
  
  S  C   5  -0.03782    -0.00011    -0.03251     0.02786    -0.00191     0.03615
 PX  C   5   0.16335    -0.18509    -0.16256     0.01029     0.10720     0.18585
 PY  C   5  -0.13241    -0.20451     0.10909    -0.10919    -0.02531     0.08067
 PZ  C   5  -0.06201    -0.07489    -0.07440     0.07743    -0.21071     0.06160
  
  S  C   6   0.00412     0.00335     0.01422    -0.00624     0.01895    -0.02056
 PX  C   6  -0.19082     0.18865     0.12313     0.00268    -0.03119    -0.14109
 PY  C   6   0.17967     0.21320    -0.12051     0.10916     0.03568    -0.08810
 PZ  C   6  -0.08303    -0.04021    -0.06596     0.10128    -0.29222     0.05733
  
  S  C   7   0.03583    -0.07170    -0.02431     0.03567     0.02580    -0.00049
 PX  C   7  -0.07124     0.06637     0.10882    -0.00785    -0.07204    -0.21297
 PY  C   7  -0.11979    -0.02648    -0.09897     0.20685     0.06852    -0.11173
 PZ  C   7  -0.05794    -0.01661     0.03240    -0.04622     0.14807    -0.03961
  
  S  C   8  -0.03299     0.08082    -0.00989     0.04919     0.02107     0.00718
 PX  C   8  -0.13024    -0.13462    -0.06354     0.04234     0.10065     0.23971
 PY  C   8   0.09572    -0.08835     0.08462    -0.20002    -0.07434     0.08127
 PZ  C   8  -0.02265    -0.01757     0.04584    -0.07698     0.14035    -0.03905
  
  S  C   9   0.03666    -0.06050    -0.00563     0.00752    -0.00739     0.00474
 PX  C   9   0.15659     0.07939     0.07715    -0.07916    -0.10903    -0.24811
 PY  C   9  -0.19861    -0.10227     0.00246     0.29472     0.06470    -0.05929
 PZ  C   9  -0.00175     0.02110     0.07385    -0.07579     0.32221    -0.05681
  
  S  C  10   0.03212     0.05986     0.00830     0.00450    -0.02304    -0.00155
 PX  C  10  -0.11758    -0.01096     0.03496     0.08003     0.06624     0.26485
 PY  C  10   0.23543     0.05665     0.04429    -0.29368    -0.09887     0.06903
 PZ  C  10  -0.00500     0.02393     0.06624    -0.08198     0.32011    -0.05708
  
  S  C  11   0.01287    -0.07030     0.00677     0.03935     0.02713     0.02729
 PX  C  11   0.11859    -0.05398    -0.01904    -0.04845    -0.07165    -0.24857
 PY  C  11  -0.02601    -0.15549     0.13246     0.16505     0.04638    -0.06991
 PZ  C  11   0.05776     0.04751     0.03166    -0.04624     0.15323    -0.05210
  
  S  H  12   0.08200     0.07970    -0.12520    -0.17603    -0.05766    -0.04441
  
  S  C  13  -0.02535     0.07026     0.02786     0.05183     0.02112     0.00650
 PX  C  13  -0.08604     0.08253     0.06862     0.00066     0.06518     0.23399
 PY  C  13   0.12252     0.04938    -0.07662    -0.20417    -0.04957     0.07562
 PZ  C  13   0.06147     0.06083     0.04162    -0.05088     0.14918    -0.00335
  
  S  H  14   0.06624     0.02215     0.13439    -0.18278    -0.08821    -0.03023
  
  S  H  15   0.04282     0.21618    -0.05479     0.08560     0.00018    -0.11473
  
  S  H  16  -0.17677    -0.06646     0.17695    -0.12444    -0.06134    -0.00692
  
  S  H  17  -0.19576    -0.08290     0.17015    -0.10753    -0.05959    -0.00707
  
  S  H  18   0.20553    -0.16903    -0.12391    -0.00372     0.05264     0.13015
  
  S  H  19   0.11530     0.02420     0.10904    -0.19734    -0.09660    -0.05019
  
  S  H  20   0.12732     0.04961    -0.09341    -0.18596    -0.06153    -0.03639
  
  S  C  21  -0.01377    -0.02809     0.02187     0.01731     0.01906     0.03296
 PX  C  21   0.01535    -0.21630    -0.16209    -0.06168    -0.02894    -0.23156
 PY  C  21   0.11263    -0.10591     0.13543     0.08465     0.01126    -0.03572
 PZ  C  21   0.05738     0.02742    -0.01382     0.08659    -0.19316     0.03189
  
  S  C  22  -0.02796     0.00220    -0.02208     0.00109    -0.01601    -0.01118
 PX  C  22   0.09333     0.23556     0.12261     0.06028    -0.07433     0.15972
 PY  C  22  -0.19227     0.09376    -0.16531    -0.10228     0.02339     0.03926
 PZ  C  22   0.02549    -0.03103    -0.08132     0.08969    -0.28548     0.01469
  
  S  C  23  -0.00354    -0.02001    -0.01168    -0.00519    -0.00729     0.00904
 PX  C  23  -0.02680    -0.21999    -0.10496    -0.01225    -0.01033    -0.16036
 PY  C  23   0.22675    -0.06307     0.18748     0.11025    -0.03410    -0.00735
 PZ  C  23   0.04548     0.04202    -0.04823     0.10160    -0.31071     0.08929
  
  S  C  24  -0.00774     0.01341     0.03046     0.03931    -0.00458    -0.01849
 PX  C  24   0.01006     0.21330     0.06336    -0.01783     0.00841     0.17145
 PY  C  24  -0.21766     0.11541    -0.23089    -0.15672     0.02350     0.06656
 PZ  C  24   0.06422     0.06460    -0.01786     0.08305    -0.22911     0.09496
  
  S  H  25  -0.09632    -0.02071    -0.18704    -0.10850    -0.00484    -0.06637
  
  S  H  26   0.06953     0.23634     0.12705     0.03839    -0.01866     0.15515
  
  S  H  27   0.17322    -0.17705     0.10737     0.07861    -0.01277    -0.09652
  
  S  H  28  -0.18575    -0.00644    -0.22744    -0.12374     0.01235    -0.04851
  
  S  C  29  -0.01022     0.03914     0.00306     0.01036    -0.00875    -0.00806
 PX  C  29   0.00512     0.19018     0.18175     0.08124     0.02896     0.24441
 PY  C  29  -0.03856     0.13376    -0.23675    -0.21196    -0.03653     0.05279
 PZ  C  29   0.09043     0.05566     0.02564     0.03914    -0.01678    -0.00550
  
  S  C  30   0.01366    -0.03600    -0.01639    -0.00212    -0.00148     0.00560
 PX  C  30   0.14065    -0.11429    -0.07415    -0.03905    -0.07255    -0.22724
 PY  C  30   0.12752    -0.13921     0.28389     0.22652     0.02014    -0.02443
 PZ  C  30   0.08624     0.08903     0.03165     0.03676    -0.03124     0.06190




    ROOT NO.   37          38          39          40          41          42

           -10.59712    -9.88392    -9.59648    -8.25455    -8.03991    -6.67564
  
  
  S  C   1   0.00282     0.01050    -0.00781     0.00576     0.01031    -0.00372
 PX  C   1  -0.00230    -0.03294     0.02823    -0.01879    -0.03141     0.01882
 PY  C   1  -0.00727     0.00428     0.00935    -0.00822    -0.00097     0.00619
 PZ  C   1   0.09212     0.26864    -0.27548     0.21959     0.29517    -0.19633
  
  S  C   2   0.00178    -0.00264    -0.00651     0.00559     0.00045    -0.00397
 PX  C   2  -0.01751     0.00883     0.01015    -0.01513     0.00797     0.00767
 PY  C   2   0.00564    -0.00262    -0.01717     0.01350     0.00475    -0.00833
 PZ  C   2   0.23583    -0.00399    -0.34593     0.34798     0.00703    -0.23458
  
  S  C   3   0.00046     0.00930     0.00188    -0.00408     0.00486     0.00215
 PX  C   3   0.00500    -0.00533     0.00601     0.00594     0.00029    -0.00423
 PY  C   3   0.00306     0.00409     0.00795    -0.00834    -0.01065     0.00636
 PZ  C   3   0.26298    -0.30259    -0.13041     0.05707    -0.32708     0.12583
  
  S  C   4   0.00249     0.00380    -0.00855     0.00568     0.01095    -0.00175
 PX  C   4  -0.00550     0.01562    -0.00564    -0.01000     0.00884     0.01078
 PY  C   4   0.00013    -0.00177    -0.01472     0.00966     0.01874    -0.00264
 PZ  C   4  -0.22714    -0.15893     0.28950    -0.03875    -0.36290    -0.12839
  
  S  C   5  -0.02665     0.02026     0.02984    -0.03154    -0.00400     0.02153
 PX  C   5   0.02401    -0.02459    -0.01631     0.02835     0.00033    -0.01932
 PY  C   5  -0.00610     0.00092     0.00681     0.00085    -0.00360    -0.00309
 PZ  C   5  -0.24006     0.22428     0.26124    -0.32801    -0.03340     0.22573
  
  S  C   6   0.01082    -0.02965    -0.00486     0.01604    -0.01900    -0.01393
 PX  C   6   0.00761    -0.02941    -0.00613     0.01696    -0.02050    -0.01496
 PY  C   6   0.01183    -0.01599    -0.01250     0.01387    -0.00422    -0.01050
 PZ  C   6  -0.12736     0.38577     0.03979    -0.20885     0.26575     0.18219
  
  S  C   7   0.00466    -0.00516    -0.00402    -0.00258    -0.00013    -0.00013
 PX  C   7  -0.02000     0.01605    -0.00282    -0.00087     0.00789    -0.01000
 PY  C   7   0.00987    -0.00939    -0.01075    -0.01127     0.00619     0.00931
 PZ  C   7   0.35562    -0.24473    -0.08382    -0.22941     0.02528     0.37314
  
  S  C   8   0.00217     0.00130     0.00004     0.00289     0.00077    -0.00144
 PX  C   8  -0.01592    -0.00274     0.02098     0.01138    -0.00153    -0.01317
 PY  C   8   0.05253     0.01877    -0.02767    -0.02556     0.00069     0.04237
 PZ  C   8  -0.35036    -0.14985     0.23489     0.21005     0.00040    -0.37101
  
  S  C   9  -0.00446    -0.00253    -0.00154    -0.00590    -0.01108    -0.00258
 PX  C   9   0.00256    -0.00243    -0.01703    -0.00687     0.00750     0.00382
 PY  C   9   0.00186    -0.00006    -0.00381    -0.01145    -0.02409    -0.00559
 PZ  C   9  -0.29094    -0.03784    -0.01418     0.21900     0.36250    -0.01486
  
  S  C  10   0.00322     0.00314     0.00076     0.00938    -0.01329     0.00122
 PX  C  10   0.00156     0.00399     0.01842     0.01238    -0.01941    -0.00474
 PY  C  10   0.00181    -0.00081     0.00268     0.00652    -0.00079     0.00351
 PZ  C  10   0.24805     0.00135     0.03910    -0.25030     0.37617     0.01415
  
  S  C  11   0.00000     0.00266    -0.00072    -0.00602    -0.00079    -0.00772
 PX  C  11  -0.02855    -0.01908    -0.02815     0.00642     0.00250     0.02100
 PY  C  11   0.01820     0.02117     0.00384    -0.01890     0.00098    -0.02200
 PZ  C  11   0.30392     0.29708     0.15216    -0.21101     0.00645    -0.37381
  
  S  H  12  -0.01215    -0.00812    -0.00841     0.00651     0.00100     0.00685
  
  S  C  13  -0.01052     0.00383    -0.00807     0.00944     0.00105     0.01352
 PX  C  13  -0.00665     0.00954    -0.00482     0.00901    -0.00316     0.01305
 PY  C  13   0.03217    -0.00569     0.03076    -0.01117     0.00078    -0.02363
 PZ  C  13  -0.31063     0.10301    -0.30258     0.20831     0.00417     0.37854
  
  S  H  14  -0.00812     0.00581     0.00380     0.00041     0.00072    -0.00010
  
  S  H  15   0.00084    -0.00176    -0.00480     0.00128    -0.00103    -0.00069
  
  S  H  16  -0.00617     0.00558     0.00833    -0.00815    -0.00149     0.00358
  
  S  H  17  -0.00118    -0.00097    -0.00311     0.01017    -0.00171    -0.01064
  
  S  H  18   0.00198     0.00589     0.00231    -0.00550     0.00796     0.00659
  
  S  H  19   0.01840     0.00277    -0.00949    -0.00689     0.00260     0.00715
  
  S  H  20   0.01497    -0.00074     0.01205    -0.00276     0.00274    -0.00699
  
  S  C  21   0.00198     0.00961    -0.00039    -0.00092    -0.00572    -0.00367
 PX  C  21  -0.00469     0.00995    -0.00438     0.00852    -0.00935     0.00813
 PY  C  21  -0.01519    -0.00449    -0.02219    -0.01579    -0.00079    -0.00793
 PZ  C  21   0.18505     0.03224     0.37371     0.37304    -0.00287     0.23493
  
  S  C  22   0.00315    -0.01633     0.01785     0.01784     0.01649     0.01757
 PX  C  22   0.03269    -0.05610     0.07658     0.04624     0.04874     0.03168
 PY  C  22   0.00353     0.01875    -0.00300    -0.00131    -0.01129    -0.00334
 PZ  C  22   0.08940    -0.23811     0.29919     0.23130     0.23516     0.18907
  
  S  C  23  -0.00410    -0.01697    -0.00548    -0.01763     0.01027    -0.01620
 PX  C  23  -0.02168    -0.00398    -0.03264    -0.02495    -0.00251    -0.01499
 PY  C  23   0.00039    -0.02179     0.00769     0.00074     0.01241     0.00124
 PZ  C  23  -0.06424    -0.38095    -0.03314    -0.22926     0.22912    -0.19160
  
  S  C  24   0.00035    -0.00078     0.00116     0.00471    -0.00000     0.00720
 PX  C  24   0.01833    -0.00413     0.02802     0.01451     0.00679     0.00555
 PY  C  24   0.00012     0.00840     0.00198     0.00308    -0.00199    -0.00098
 PZ  C  24  -0.15638    -0.22791    -0.27419    -0.34592    -0.02145    -0.21846
  
  S  H  25   0.00026     0.01265    -0.00591    -0.00334    -0.00850    -0.00347
  
  S  H  26   0.01546    -0.01018     0.02010     0.00326     0.00257    -0.00452
  
  S  H  27  -0.00811     0.00504    -0.01211    -0.00067    -0.00849     0.00415
  
  S  H  28  -0.00950     0.01348    -0.01624    -0.00653    -0.01049    -0.00478
  
  S  C  29   0.00737    -0.00303     0.00711    -0.00122     0.00256    -0.00048
 PX  C  29   0.01738     0.00459     0.02251     0.00718    -0.00167    -0.00612
 PY  C  29   0.00561     0.00692     0.00861     0.00779    -0.01251    -0.00171
 PZ  C  29   0.20710     0.36507     0.13925     0.05651    -0.32032    -0.15084
  
  S  C  30   0.00306    -0.01284     0.01477     0.00575     0.01486    -0.00253
 PX  C  30  -0.01180     0.00059    -0.02092    -0.00360    -0.01104     0.00797
 PY  C  30  -0.00247    -0.00257    -0.00446    -0.00449     0.00438    -0.00151
 PZ  C  30  -0.17714     0.17024    -0.33468    -0.03079    -0.33124     0.15068




    ROOT NO.   43          44          45          46          47          48

            -1.08818     0.17474     0.26966     1.19775     1.35172     1.81850
  
  
  S  C   1  -0.01234    -0.00551    -0.01825     0.01764    -0.00127    -0.01229
 PX  C   1   0.01862     0.02551     0.01716    -0.02117     0.01462     0.00386
 PY  C   1  -0.00087     0.00978    -0.00191    -0.00532     0.01181     0.00047
 PZ  C   1  -0.20832    -0.31191    -0.21031     0.29261    -0.22742    -0.08387
  
  S  C   2   0.00604     0.00810     0.01293    -0.01950     0.00860     0.01562
 PX  C   2  -0.01620    -0.00440    -0.02233     0.01942     0.00454    -0.01150
 PY  C   2   0.00355     0.00410     0.00676    -0.00834     0.00471     0.00533
 PZ  C   2   0.23800     0.04419     0.36319    -0.32807    -0.05160     0.21803
  
  S  C   3   0.00016    -0.01478     0.00252     0.00672    -0.02714    -0.00106
 PX  C   3  -0.00376    -0.00042     0.00034    -0.00819    -0.00233     0.00575
 PY  C   3   0.01039    -0.00113     0.00795    -0.00053    -0.00466     0.00078
 PZ  C   3   0.12934     0.32291    -0.09736     0.09929     0.32287    -0.25388
  
  S  C   4  -0.01141     0.01655    -0.01346    -0.00206     0.02866    -0.01076
 PX  C   4   0.00627     0.01384     0.01532    -0.01932    -0.00603     0.01697
 PY  C   4  -0.01072     0.01162     0.00025    -0.01462    -0.00052     0.01129
 PZ  C   4   0.12225    -0.37226    -0.03459     0.31635    -0.10534    -0.23275
  
  S  C   5   0.02120     0.00795     0.03605    -0.03137    -0.03318     0.03948
 PX  C   5  -0.01679    -0.01165    -0.02443     0.01999     0.00951    -0.01402
 PY  C   5   0.00281    -0.00507     0.00625    -0.00286    -0.01191     0.00751
 PZ  C   5   0.22894     0.04380     0.33644    -0.21196    -0.26286     0.21651
  
  S  C   6   0.01114    -0.02177     0.01321     0.00680    -0.02493    -0.00050
 PX  C   6   0.01043    -0.01684     0.01140     0.00347    -0.01794     0.00200
 PY  C   6  -0.00302    -0.01173    -0.00747     0.01422    -0.00232    -0.01183
 PZ  C   6  -0.17952     0.25671    -0.22916    -0.01654     0.39016    -0.11290
  
  S  C   7   0.00230    -0.00370     0.00434     0.00185     0.01627    -0.00184
 PX  C   7   0.01004    -0.00956     0.00938     0.00596     0.00091    -0.00870
 PY  C   7  -0.00839    -0.00928    -0.00009     0.00053    -0.00354     0.00727
 PZ  C   7  -0.36397     0.00189    -0.21788    -0.07293    -0.25570     0.34980
  
  S  C   8   0.00653     0.00062     0.00209     0.00774    -0.00842     0.00106
 PX  C   8  -0.00727     0.00900    -0.00944    -0.00406     0.00744     0.01191
 PY  C   8   0.03470     0.00412     0.01601     0.02516    -0.00291    -0.03705
 PZ  C   8  -0.36374    -0.00088    -0.19342    -0.26042     0.09924     0.35095
  
  S  C   9  -0.00684    -0.02298     0.00387    -0.00356     0.00296    -0.00903
 PX  C   9  -0.00315    -0.00178     0.00986    -0.00133    -0.00097    -0.00841
 PY  C   9  -0.00634    -0.00974    -0.01455    -0.00203     0.00098     0.01792
 PZ  C   9   0.02008     0.38205     0.18694     0.01067    -0.03139    -0.29203
  
  S  C  10  -0.00057     0.02603    -0.01741     0.00049    -0.00829     0.00337
 PX  C  10  -0.00188     0.00892    -0.01110    -0.00484    -0.00010     0.00491
 PY  C  10   0.00180     0.00953     0.00190    -0.00041     0.00044    -0.00163
 PZ  C  10   0.00427    -0.34801     0.29667    -0.02485     0.00035    -0.27222
  
  S  C  11   0.00372    -0.00483     0.00458     0.00868     0.00410     0.01167
 PX  C  11  -0.01684     0.00982     0.00717     0.00480    -0.01552    -0.00902
 PY  C  11   0.01812     0.00036    -0.00666     0.01390     0.01348     0.02132
 PZ  C  11   0.37303    -0.02525    -0.20313     0.10394     0.29966     0.31296
  
  S  H  12  -0.00049     0.00292    -0.00027    -0.00196     0.00236    -0.00356
  
  S  C  13   0.01201    -0.00085    -0.01103    -0.00164    -0.00012     0.01531
 PX  C  13   0.01191    -0.01057    -0.00696     0.00164     0.00424     0.00369
 PY  C  13  -0.02052    -0.00383     0.01222    -0.01459     0.00531    -0.01886
 PZ  C  13   0.37682    -0.03496    -0.21403     0.28859    -0.06580     0.30898
  
  S  H  14   0.00029     0.00274     0.00063    -0.00247    -0.01006     0.00517
  
  S  H  15   0.00628     0.00437     0.00981    -0.01117     0.00472     0.00663
  
  S  H  16  -0.00164    -0.00533    -0.00614     0.01179    -0.00297    -0.01014
  
  S  H  17  -0.01057    -0.00591    -0.02282     0.02224     0.02378    -0.02787
  
  S  H  18  -0.00770     0.01358    -0.01021    -0.00320     0.01957    -0.00194
  
  S  H  19  -0.00317     0.00088     0.00002    -0.00857     0.00619     0.00533
  
  S  H  20  -0.00479     0.00005     0.00738     0.00159     0.00080    -0.00868
  
  S  C  21  -0.00199     0.01053     0.00935     0.03199    -0.00810     0.02255
 PX  C  21  -0.02229     0.00757     0.02332     0.02084    -0.00688     0.00317
 PY  C  21   0.00177     0.00639    -0.00406     0.00189    -0.01162    -0.00207
 PZ  C  21  -0.23286     0.03859     0.35037     0.37780     0.06267     0.18643
  
  S  C  22   0.01303    -0.03234    -0.01541    -0.04867     0.04162    -0.01634
 PX  C  22   0.03693    -0.03959    -0.03816    -0.05584     0.02928    -0.01409
 PY  C  22  -0.00661     0.00067     0.00991     0.00983     0.00917     0.00947
 PZ  C  22   0.19356    -0.25188    -0.20308    -0.34182     0.20589    -0.08791
  
  S  C  23   0.00969     0.02592    -0.01345     0.01807    -0.05104    -0.00474
 PX  C  23   0.00366     0.01511    -0.00586     0.00998    -0.02188     0.00189
 PY  C  23   0.00936    -0.00298    -0.01122    -0.01189    -0.00136    -0.00644
 PZ  C  23   0.19567     0.20683    -0.23760     0.01867    -0.38291    -0.07266
  
  S  C  24   0.00131    -0.01706    -0.00016    -0.01595     0.02841     0.00423
 PX  C  24  -0.00143    -0.00489     0.00387    -0.00263     0.01199    -0.00001
 PY  C  24  -0.00021     0.00519     0.00058     0.00470    -0.00334     0.00018
 PZ  C  24  -0.22567     0.03559     0.33719     0.24969     0.26831     0.16799
  
  S  H  25  -0.00292    -0.00137    -0.00183    -0.01286     0.00200    -0.01063
  
  S  H  26  -0.00660     0.02097     0.01020     0.03392    -0.02833     0.01161
  
  S  H  27  -0.00955    -0.01262     0.01230    -0.00622     0.02987     0.00451
  
  S  H  28  -0.00547     0.01102     0.00407     0.01259    -0.01706    -0.00026
  
  S  C  29  -0.00255    -0.00921    -0.00664    -0.02906     0.00164    -0.02262
 PX  C  29   0.00752     0.00710    -0.01167    -0.01039    -0.00661    -0.00898
 PY  C  29  -0.00716     0.00135     0.00008    -0.01025    -0.00131    -0.00678
 PZ  C  29  -0.14231     0.31887    -0.09232    -0.09209    -0.37874    -0.21685
  
  S  C  30   0.00285     0.01938     0.00396     0.02531    -0.01456     0.00488
 PX  C  30  -0.00335    -0.00892    -0.00112    -0.00476    -0.00181     0.00215
 PY  C  30   0.00710     0.00108    -0.00657    -0.00342    -0.00544    -0.00440
 PZ  C  30  -0.16781    -0.31624     0.00008    -0.36830     0.12048    -0.19007




    ROOT NO.   49          50          51          52          53          54

             2.25757     2.46670     2.82829     3.08788     3.25044     3.34092
  
  
  S  C   1   0.06818    -0.09471     0.22399    -0.06002     0.25103    -0.06258
 PX  C   1   0.00172    -0.03947     0.03182    -0.02927     0.00524    -0.06072
 PY  C   1  -0.00311    -0.02236     0.02915    -0.01423     0.02085     0.04521
 PZ  C   1   0.24492     0.19258     0.02660     0.20797     0.07464     0.01978
  
  S  C   2  -0.09500     0.13896    -0.26404     0.08824    -0.20485     0.12317
 PX  C   2  -0.00152     0.02673     0.00434     0.01611     0.06004     0.01929
 PY  C   2  -0.02975     0.03588    -0.04250     0.00918     0.00499     0.02068
 PZ  C   2  -0.17274    -0.14617    -0.03367    -0.22977    -0.09332    -0.02847
  
  S  C   3   0.13280    -0.20076     0.29102    -0.09276     0.08620    -0.10558
 PX  C   3   0.00635    -0.01016    -0.06125     0.01505    -0.06757    -0.10776
 PY  C   3   0.01648    -0.02917     0.01979     0.00325    -0.06014     0.10735
 PZ  C   3   0.04822     0.05106     0.06599     0.27540     0.15778     0.02208
  
  S  C   4  -0.12237     0.19714    -0.27824     0.05919    -0.00271    -0.21894
 PX  C   4  -0.01191     0.04308     0.00604     0.01914     0.06370     0.03824
 PY  C   4   0.00343    -0.00412     0.06099    -0.02675     0.08435    -0.10150
 PZ  C   4  -0.04405    -0.05499    -0.05877    -0.26227    -0.15272    -0.02008
  
  S  C   5   0.09152    -0.10694     0.22127    -0.00857     0.10314     0.19807
 PX  C   5   0.01824    -0.06017     0.04659    -0.02508    -0.05073     0.05863
 PY  C   5   0.00598     0.01511    -0.02358     0.02051    -0.03640     0.00040
 PZ  C   5   0.18189     0.17469     0.00919     0.22687     0.09361    -0.02072
  
  S  C   6  -0.03453     0.10656    -0.19841     0.05782    -0.18329    -0.10928
 PX  C   6  -0.00428     0.02880    -0.03328     0.00998    -0.01299    -0.00402
 PY  C   6   0.00055     0.00530     0.01464    -0.01568     0.05883    -0.07022
 PZ  C   6  -0.26435    -0.19461    -0.05164    -0.20701    -0.11085    -0.01690
  
  S  C   7  -0.14450     0.19333    -0.14206     0.01751     0.07555     0.24835
 PX  C   7  -0.00662    -0.00719     0.08996    -0.03338     0.08373     0.04213
 PY  C   7  -0.03909     0.04345     0.02791    -0.02351     0.07393     0.05850
 PZ  C   7   0.12536     0.07848    -0.02090    -0.12748    -0.10483    -0.02121
  
  S  C   8   0.12907    -0.19972     0.13361     0.00627    -0.18106     0.22252
 PX  C   8   0.03057    -0.03765    -0.06589     0.04985    -0.10586    -0.00481
 PY  C   8  -0.00459     0.03935    -0.06663     0.00962    -0.03241    -0.03326
 PZ  C   8  -0.14256    -0.07990     0.01221     0.10758     0.10684     0.00773
  
  S  C   9  -0.18192     0.24007     0.00745    -0.09631     0.33912    -0.12086
 PX  C   9  -0.02355     0.02323     0.07430    -0.02901     0.02672     0.08592
 PY  C   9   0.01639    -0.02600     0.03553    -0.00696    -0.04957    -0.17551
 PZ  C   9   0.28811     0.20201     0.03189     0.02944    -0.08649    -0.02893
  
  S  C  10   0.19371    -0.22535    -0.00822     0.05603    -0.25245    -0.28992
 PX  C  10   0.00655     0.00825    -0.07771    -0.00060     0.06071    -0.08592
 PY  C  10   0.02432    -0.02444    -0.04434     0.03648    -0.09964     0.10329
 PZ  C  10  -0.27031    -0.20364    -0.02584    -0.01974     0.07071     0.01048
  
  S  C  11  -0.15935     0.20794     0.14117    -0.04600     0.02472     0.31714
 PX  C  11   0.02243    -0.02966     0.06256     0.00245    -0.12666    -0.05258
 PY  C  11  -0.01924     0.03528     0.06345     0.00496    -0.05975    -0.00021
 PZ  C  11   0.13104     0.08161     0.04639     0.16571    -0.03014    -0.05039
  
  S  H  12   0.08815    -0.11809    -0.08979     0.04243    -0.03011    -0.16857
  
  S  C  13   0.13991    -0.22554    -0.13084     0.11127    -0.15165     0.24654
 PX  C  13  -0.00566    -0.00764    -0.08162     0.00325     0.12357     0.02439
 PY  C  13  -0.02798     0.04708    -0.01477    -0.00610     0.07464    -0.00555
 PZ  C  13  -0.13296    -0.08161    -0.05531    -0.17681     0.05757     0.00947
  
  S  H  14   0.07750    -0.10592     0.08890    -0.00609    -0.06389    -0.11117
  
  S  H  15  -0.04700     0.05379    -0.13648     0.02989    -0.15854     0.05246
  
  S  H  16   0.04981    -0.08253     0.16587    -0.06071     0.13243    -0.04796
  
  S  H  17  -0.05596     0.05144    -0.13593    -0.00162    -0.08371    -0.09738
  
  S  H  18   0.01749    -0.07430     0.12557    -0.04475     0.10920     0.08339
  
  S  H  19  -0.07156     0.10580    -0.07914     0.00780     0.10634    -0.08870
  
  S  H  20  -0.08064     0.13118     0.08286    -0.07055     0.09771    -0.11698
  
  S  C  21  -0.12109     0.11694     0.21440     0.05455    -0.22455     0.14130
 PX  C  21   0.02195    -0.07578    -0.05615     0.04916     0.02453    -0.06250
 PY  C  21  -0.01580    -0.00090     0.02260     0.02197    -0.03442    -0.01125
 PZ  C  21  -0.16586    -0.12730     0.01615     0.23584     0.04300    -0.03687
  
  S  C  22   0.12577    -0.04162    -0.17302    -0.12112     0.20995    -0.03866
 PX  C  22   0.01648     0.05356     0.03965    -0.03253    -0.04213    -0.00429
 PY  C  22  -0.00636     0.01973     0.01349    -0.00625    -0.01390     0.09193
 PZ  C  22   0.23160     0.18582     0.02031    -0.21099    -0.08054     0.03488
  
  S  C  23  -0.11471     0.04868     0.16494     0.07995    -0.16127    -0.16797
 PX  C  23  -0.00595    -0.04214    -0.02235     0.04708    -0.00790     0.07324
 PY  C  23   0.01579    -0.00897    -0.02798    -0.01984     0.04108    -0.03579
 PZ  C  23  -0.26896    -0.19155    -0.00485     0.23804     0.06878    -0.00576
  
  S  C  24   0.11217    -0.11867    -0.20177     0.01504     0.13681     0.24525
 PX  C  24  -0.00065     0.04123     0.01615    -0.04893     0.01936    -0.01941
 PY  C  24  -0.02479     0.04751     0.04390    -0.03192    -0.00920    -0.03179
 PZ  C  24   0.21875     0.13117    -0.04007    -0.26903    -0.02946     0.02256
  
  S  H  25   0.06188    -0.06338    -0.12451    -0.03141     0.13574    -0.05338
  
  S  H  26  -0.08319     0.02174     0.10489     0.08160    -0.12715     0.03873
  
  S  H  27   0.06976    -0.03375    -0.10262    -0.04676     0.09705     0.11656
  
  S  H  28  -0.06529     0.06110     0.12471     0.00158    -0.10312    -0.12531
  
  S  C  29   0.15262    -0.21128    -0.26435     0.04131     0.18676    -0.16239
 PX  C  29  -0.00651     0.03867    -0.01163    -0.05710     0.06624    -0.03353
 PY  C  29   0.00425    -0.01223    -0.05429     0.01968     0.04389     0.16325
 PZ  C  29   0.02932     0.02136    -0.07195    -0.31848     0.00078     0.06028
  
  S  C  30  -0.13521     0.21499     0.25143    -0.10495    -0.10504    -0.21117
 PX  C  30  -0.00305    -0.02074     0.04924     0.03590    -0.11244     0.06465
 PY  C  30   0.01652    -0.03174    -0.02501     0.00883     0.01988    -0.12674
 PZ  C  30  -0.06238    -0.00877     0.10105     0.32625    -0.02074    -0.05691




    ROOT NO.   55          56          57          58          59          60

             3.54471     3.59735     3.77154     3.88532     4.16364     4.23714
  
  
  S  C   1   0.13207     0.36573     0.06526    -0.05676     0.03484     0.02504
 PX  C   1   0.00565    -0.05726    -0.02520    -0.13263     0.07012     0.12580
 PY  C   1   0.02316     0.05465     0.01656     0.09538    -0.04559    -0.04667
 PZ  C   1  -0.13149    -0.00684    -0.00756    -0.00099    -0.00148     0.01836
  
  S  C   2  -0.08731    -0.08394     0.02725     0.26692    -0.14633    -0.25734
 PX  C   2   0.03618     0.17667     0.04616     0.05090    -0.01681    -0.02360
 PY  C   2   0.02866     0.10103     0.02893     0.00350     0.02358     0.08319
 PZ  C   2   0.17779     0.00268     0.00927    -0.00654     0.00792    -0.00696
  
  S  C   3  -0.03346    -0.29227    -0.10974    -0.20789     0.06997    -0.03437
 PX  C   3  -0.03839     0.00017     0.02896    -0.04532    -0.01890    -0.18338
 PY  C   3  -0.04182    -0.14293    -0.02525     0.14332    -0.06661    -0.05383
 PZ  C   3  -0.29280     0.01434    -0.01783    -0.02051    -0.00290     0.02123
  
  S  C   4   0.04756     0.32304     0.09281    -0.15036     0.04057    -0.04542
 PX  C   4   0.00090     0.06354     0.00431     0.12399    -0.06640    -0.15575
 PY  C   4  -0.00403    -0.06691    -0.05073    -0.11855     0.03405    -0.12165
 PZ  C   4   0.28173    -0.01719     0.01595     0.02408    -0.00194    -0.06085
  
  S  C   5  -0.02028    -0.02610    -0.01756     0.30015    -0.14206    -0.26618
 PX  C   5  -0.02471    -0.17105    -0.04439    -0.00913     0.02540     0.05700
 PY  C   5  -0.04316    -0.09643    -0.02376    -0.01107    -0.00139    -0.02034
 PZ  C   5  -0.16148     0.02602    -0.00209    -0.06376     0.02673     0.08219
  
  S  C   6  -0.11709    -0.32272    -0.07513    -0.23180     0.10200     0.12914
 PX  C   6   0.00338     0.01531     0.00801     0.00724    -0.00399     0.02972
 PY  C   6   0.04999     0.12548     0.02420    -0.09941     0.05188     0.08508
 PZ  C   6   0.11358    -0.05832    -0.00718    -0.01210     0.00828    -0.00861
  
  S  C   7   0.10552     0.12426    -0.02926     0.19099    -0.00279     0.34454
 PX  C   7   0.01174    -0.10222    -0.06739    -0.05826     0.04910     0.04816
 PY  C   7   0.02553    -0.06887    -0.06209    -0.03666     0.03016    -0.05714
 PZ  C   7   0.25467    -0.03907     0.01267     0.01184     0.00913    -0.01093
  
  S  C   8  -0.04818    -0.10019     0.05443     0.14784    -0.02975     0.35543
 PX  C   8  -0.02524     0.13073     0.08077    -0.05037     0.03345    -0.02311
 PY  C   8   0.03076     0.07384     0.03176    -0.02099     0.01018     0.05265
 PZ  C   8  -0.24905     0.03832    -0.01312    -0.01968    -0.00405     0.04527
  
  S  C   9   0.08675    -0.17485    -0.19178    -0.01834    -0.07536    -0.08403
 PX  C   9   0.00689    -0.08759    -0.01085     0.08187    -0.03492     0.15335
 PY  C   9  -0.04910     0.00690     0.07462     0.02333    -0.15599     0.00863
 PZ  C   9   0.31508    -0.07383     0.02198     0.01566     0.00255    -0.02896
  
  S  C  10  -0.10417     0.13186     0.16749    -0.02312    -0.12785    -0.05770
 PX  C  10   0.03086     0.00150    -0.07436     0.09159    -0.12397     0.09223
 PY  C  10  -0.00053     0.08845     0.06128     0.06468     0.03782     0.12302
 PZ  C  10  -0.31330     0.08077    -0.01387    -0.01733    -0.02619     0.01516
  
  S  C  11   0.01285    -0.05513     0.11557    -0.12971     0.29362    -0.12738
 PX  C  11  -0.05460     0.05845     0.12782    -0.07145    -0.02567    -0.03091
 PY  C  11  -0.01047     0.01147     0.06596    -0.03300    -0.08391     0.01509
 PZ  C  11   0.21601    -0.06798     0.04054     0.01928     0.01401    -0.00905
  
  S  H  12   0.00560     0.05064    -0.09193     0.08485    -0.26915     0.13328
  
  S  C  13  -0.00408     0.15929    -0.05229    -0.08970     0.31920    -0.12176
 PX  C  13   0.05910    -0.03404    -0.14259    -0.04620    -0.04297    -0.02192
 PY  C  13   0.03670    -0.02733    -0.05868    -0.03465     0.05442    -0.05493
 PZ  C  13  -0.22298     0.05386    -0.04388    -0.00368    -0.01645     0.01451
  
  S  H  14  -0.07634    -0.09876     0.02233    -0.11747     0.01302    -0.31196
  
  S  H  15  -0.07239    -0.22593    -0.04042     0.04401    -0.01870     0.03087
  
  S  H  16   0.07056     0.06204    -0.01899    -0.17122     0.11444     0.25740
  
  S  H  17   0.02360     0.02086     0.01817    -0.18413     0.10201     0.24106
  
  S  H  18   0.08599     0.21201     0.05197     0.16089    -0.06576    -0.04072
  
  S  H  19   0.02124     0.07775    -0.03251    -0.08386     0.03995    -0.30681
  
  S  H  20   0.00960    -0.11532     0.03881     0.05506    -0.29203     0.13480
  
  S  C  21   0.01070     0.12131    -0.11847    -0.24665    -0.28659    -0.01093
 PX  C  21   0.03619     0.01610    -0.18856     0.03434    -0.01940    -0.00346
 PY  C  21   0.00672     0.02751    -0.09410     0.01574     0.02636    -0.00324
 PZ  C  21   0.12476    -0.06958     0.08685     0.01617     0.01676    -0.00173
  
  S  C  22  -0.04527    -0.14390     0.38756     0.08649     0.08326     0.02351
 PX  C  22  -0.02119     0.02368    -0.03475     0.00323    -0.01858     0.00955
 PY  C  22   0.00509     0.00535     0.07165    -0.13071    -0.13647    -0.00914
 PZ  C  22  -0.09488     0.08036    -0.13003    -0.01678    -0.00308    -0.00526
  
  S  C  23   0.00007     0.09379    -0.35409     0.17910     0.14560     0.01593
 PX  C  23   0.04093     0.02571    -0.09397    -0.09823    -0.11966    -0.00768
 PY  C  23  -0.01169    -0.03222     0.06805     0.06082     0.05416     0.01344
 PZ  C  23   0.10807    -0.07633     0.13491    -0.01534    -0.01465    -0.00133
  
  S  C  24   0.08484    -0.02531     0.01664    -0.28397    -0.30931    -0.01987
 PX  C  24  -0.03291    -0.03486     0.16363     0.00228    -0.00159     0.00282
 PY  C  24  -0.02631    -0.01429     0.10368    -0.02714    -0.07984     0.00022
 PZ  C  24  -0.13964     0.06805    -0.08966     0.00323     0.00886     0.00090
  
  S  H  25  -0.00579    -0.07665     0.09311     0.15259     0.23851    -0.00423
  
  S  H  26   0.03162     0.08675    -0.22754    -0.05676    -0.01649    -0.02569
  
  S  H  27  -0.00082    -0.05663     0.23114    -0.11554    -0.06229    -0.01898
  
  S  H  28  -0.05474     0.02721    -0.00920     0.18954     0.27271     0.00303
  
  S  C  29   0.06639    -0.03383    -0.29093     0.17286     0.03251     0.03409
 PX  C  29  -0.02947    -0.05769     0.11574     0.09892     0.14522    -0.00024
 PY  C  29   0.04676     0.00287    -0.07378    -0.08098     0.10047    -0.06053
 PZ  C  29  -0.23004     0.08917    -0.07522    -0.02200    -0.01903     0.00743
  
  S  C  30  -0.12083    -0.03760     0.29585     0.11444    -0.03378     0.05315
 PX  C  30  -0.02641     0.05983     0.02962     0.00016     0.17165    -0.04058
 PY  C  30  -0.00283    -0.00522    -0.10738     0.15534     0.09842     0.02808
 PZ  C  30   0.22867    -0.08742     0.09957     0.01788    -0.00084    -0.00019




    ROOT NO.   61          62          63          64          65          66

             5.22736     5.45767     5.48534     5.65875     6.12611     6.38997
  
  
  S  C   1   0.09409    -0.29439     0.10624    -0.09231     0.04716    -0.02517
 PX  C   1  -0.12627     0.06967    -0.07373     0.13230    -0.09310     0.06171
 PY  C   1   0.02314     0.28895    -0.06217     0.00611    -0.00337    -0.00005
 PZ  C   1  -0.00902     0.04431    -0.01502     0.01326    -0.00896     0.00590
  
  S  C   2   0.16048    -0.06736     0.08361    -0.14429     0.09260    -0.06379
 PX  C   2   0.08663    -0.19917     0.08055    -0.07703     0.04168    -0.02673
 PY  C   2  -0.05916     0.07310    -0.06380     0.13625    -0.17573     0.18427
 PZ  C   2  -0.00300    -0.02301     0.00453    -0.00008     0.00121    -0.00217
  
  S  C   3  -0.03538     0.04069     0.00286    -0.07781     0.14706    -0.16324
 PX  C   3   0.16434     0.03993     0.03171    -0.05365    -0.07838     0.12646
 PY  C   3   0.03506    -0.04472     0.04345    -0.08880     0.12962    -0.14244
 PZ  C   3   0.00868     0.01292     0.00055    -0.00696     0.00461    -0.00265
  
  S  C   4   0.05453     0.02126    -0.01303     0.05244    -0.13018     0.14405
 PX  C   4  -0.14904    -0.03667    -0.04950     0.12663    -0.07994     0.05789
 PY  C   4  -0.10683     0.05991    -0.03384    -0.01351     0.13188    -0.17630
 PZ  C   4  -0.02252    -0.01059    -0.00682     0.01674    -0.00955     0.00447
  
  S  C   5  -0.20803    -0.09218    -0.05867     0.17380    -0.11510     0.07886
 PX  C   5  -0.01422    -0.04437     0.02009    -0.05249     0.10123    -0.10931
 PY  C   5  -0.12140    -0.19122    -0.00841     0.12138    -0.12010     0.11109
 PZ  C   5   0.05094     0.03215     0.01281    -0.04372     0.03327    -0.02559
  
  S  C   6  -0.11305    -0.28380     0.02519     0.06890    -0.04175     0.02685
 PX  C   6   0.09817     0.30535    -0.03042    -0.07949     0.06739    -0.04982
 PY  C   6   0.11744    -0.08864     0.07076    -0.11698     0.07897    -0.05095
 PZ  C   6  -0.01961    -0.03508     0.00174     0.01026    -0.00486     0.00287
  
  S  C   7  -0.21799    -0.05793    -0.03533     0.05768     0.08935    -0.13532
 PX  C   7  -0.06006    -0.02832     0.00441    -0.04581     0.11394    -0.14231
 PY  C   7   0.07758     0.02478     0.03280    -0.11603    -0.06083     0.26506
 PZ  C   7  -0.00386    -0.00474     0.00035     0.00055     0.00260    -0.00549
  
  S  C   8   0.23122    -0.05276     0.07142    -0.06227    -0.08103     0.13813
 PX  C   8  -0.02528    -0.01440    -0.04312     0.08452    -0.01580    -0.10955
 PY  C   8   0.09408    -0.04174     0.03568    -0.01940    -0.11117     0.21819
 PZ  C   8   0.01893     0.00031     0.00677    -0.00749    -0.00713     0.01945
  
  S  C   9  -0.01651     0.04176     0.05065    -0.11676     0.03521     0.11903
 PX  C   9   0.15629    -0.02103     0.04379    -0.04640    -0.06240     0.11821
 PY  C   9   0.06665     0.00095    -0.01254     0.14812    -0.07052    -0.17341
 PZ  C   9  -0.00467     0.00049    -0.00031     0.00092     0.00002    -0.00252
  
  S  C  10  -0.00564     0.01015    -0.03241     0.15088    -0.02681    -0.16549
 PX  C  10  -0.15290     0.01045     0.02050    -0.08199     0.09307     0.06798
[...]
  S   H   18    0.0760   -0.0558    0.0184   -0.0164   -0.0402    0.3033    0.0051    0.0877
  S   H   19    0.1098   -0.2503   -0.2464    0.2077    0.1490    0.0568   -0.0148    0.1366
  S   H   20   -0.2023   -0.1906   -0.2971    0.0196   -0.0975   -0.0089    0.0702   -0.1391
  S   C   21   -0.1602   -0.0547    0.0427    0.0250    0.0064   -0.0001    0.0487    0.0443
  Px  C   21   -0.1134   -0.0677    0.2348    0.2897    0.0241    0.0022   -0.1036   -0.0542
  Py  C   21    0.1750    0.0749   -0.0854   -0.0877   -0.0147   -0.0009    0.2979    0.1996
  Pz  C   21    0.0070    0.0038   -0.0127   -0.0161   -0.0013   -0.0001    0.0166    0.0077
  S   C   22   -0.1050   -0.0296   -0.0415   -0.0492   -0.0029    0.0002   -0.1127   -0.0510
  Px  C   22   -0.1263   -0.0431   -0.0320   -0.0316   -0.0056    0.0001    0.4671    0.1608
  Py  C   22   -0.1041   -0.0326    0.0572    0.0635    0.0044    0.0008   -0.0444    0.0541
  Pz  C   22    0.0351    0.0112    0.0039    0.0034    0.0007   -0.0000   -0.0694   -0.0206
  S   C   23    0.0401    0.0095   -0.0547   -0.0574   -0.0049   -0.0002    0.0996   -0.0300
  Px  C   23    0.1254    0.0376   -0.0150    0.0028   -0.0086   -0.0004   -0.2123    0.1394
  Py  C   23   -0.0284   -0.0096   -0.0822   -0.0893   -0.0106    0.0006   -0.4508    0.0171
  Pz  C   23   -0.0152   -0.0041    0.0079    0.0070    0.0012    0.0000    0.0171   -0.0033
  S   C   24    0.1242    0.0362    0.0006   -0.0107    0.0002    0.0003   -0.0843    0.0800
  Px  C   24   -0.0492   -0.0160    0.0395    0.0605   -0.0013   -0.0000   -0.1878    0.1313
  Py  C   24    0.2359    0.1192    0.2162    0.2619    0.0219   -0.0026    0.2242   -0.1993
  Pz  C   24    0.0020    0.0003   -0.0023   -0.0017   -0.0004   -0.0001   -0.0017   -0.0023
  S   H   25    0.2514    0.1049   -0.1771   -0.1917   -0.0229   -0.0012    0.2009    0.1204
  S   H   26    0.1667    0.0544    0.0269    0.0239    0.0045   -0.0003   -0.2838   -0.0976
  S   H   27   -0.0604   -0.0182    0.0718    0.0654    0.0117   -0.0000    0.3074   -0.0491
  S   H   28   -0.2304   -0.0980   -0.1315   -0.1478   -0.0160    0.0014   -0.1642    0.1347
  S   C   29   -0.1424   -0.0792    0.1682    0.2552    0.0069   -0.0007    0.0076    0.0185
  Px  C   29    0.1127    0.0427    0.0376    0.1063   -0.0044    0.0038   -0.1101   -0.0843
  Py  C   29   -0.1796   -0.1241   -0.0495   -0.1473    0.0185   -0.0017   -0.0191   -0.0697
  Pz  C   29    0.0010    0.0029   -0.0071   -0.0047   -0.0017    0.0000    0.0018    0.0029
  S   C   30    0.1952    0.1099    0.1517    0.2389    0.0016    0.0006   -0.0220    0.0211
  Px  C   30    0.0734    0.0670   -0.0282   -0.0697    0.0046   -0.0007    0.1142   -0.1835
  Py  C   30   -0.1498   -0.0741    0.0729    0.1791   -0.0098   -0.0035    0.0884   -0.0869
  Pz  C   30    0.0110    0.0050    0.0094    0.0202   -0.0012   -0.0000   -0.0042    0.0069


   Root No.      73        74        75        76        77        78        79        80

                73 A      74 A      75 A      76 A      77 A      78 A      79 A      80 A   

                 9.320     9.508    10.105    10.627    10.990    11.493    11.745    12.165
  
  S   C    1   -0.0115   -0.0699   -0.0316    0.0617    0.0511    0.0251    0.0186   -0.0053
  Px  C    1    0.0344   -0.2341    0.0925    0.2070   -0.1623   -0.1648    0.0244    0.1598
  Py  C    1   -0.0954   -0.1262   -0.1844    0.0560    0.2602    0.1764    0.0346   -0.1222
  Pz  C    1    0.0026   -0.0192    0.0071    0.0155   -0.0128   -0.0134    0.0030    0.0146
  S   C    2   -0.0438    0.0693   -0.0717   -0.0234    0.0932    0.0506    0.0363    0.0062
  Px  C    2    0.0253   -0.2363    0.0465    0.2342   -0.0707   -0.1133    0.0705    0.1753
  Py  C    2   -0.1404    0.1220   -0.1666    0.0540    0.1841    0.0554    0.1337    0.1136
  Pz  C    2    0.0058   -0.0160    0.0086    0.0109   -0.0110   -0.0085   -0.0010    0.0049
  S   C    3    0.0038    0.0534   -0.0128   -0.0663    0.0271    0.0254    0.0013   -0.0064
  Px  C    3   -0.2010    0.0577   -0.2247    0.0759    0.0377   -0.0435   -0.1887   -0.1661
  Py  C    3   -0.0563    0.0020   -0.0914    0.1023    0.2236    0.0619    0.3273    0.3258
  Pz  C    3   -0.0015    0.0025   -0.0030   -0.0005    0.0017    0.0017   -0.0042   -0.0042
  S   C    4   -0.0238    0.0358   -0.0158   -0.0581   -0.0315   -0.0245   -0.0077    0.0172
  Px  C    4    0.0934    0.1270    0.2404    0.1070   -0.2165   -0.0372   -0.1292   -0.2410
  Py  C    4    0.0851    0.1417    0.1324   -0.0144    0.0822    0.0711    0.3602    0.3048
  Pz  C    4    0.0037    0.0082    0.0110    0.0012   -0.0065   -0.0019    0.0091    0.0051
  S   C    5   -0.0066    0.0787    0.0502   -0.0288   -0.1020   -0.0610   -0.0359    0.0009
  Px  C    5    0.0837    0.0489    0.1835    0.1539   -0.1186    0.0154   -0.1055   -0.2614
  Py  C    5    0.0545   -0.2629   -0.0576    0.1469    0.1916    0.1430    0.0478   -0.1173
  Pz  C    5    0.0070   -0.0045    0.0075    0.0137    0.0034    0.0086   -0.0036   -0.0194
  S   C    6    0.0480   -0.0564    0.0599    0.0664   -0.0382   -0.0145   -0.0040   -0.0204
  Px  C    6    0.1638   -0.1296    0.1751    0.1454   -0.1033   -0.0384   -0.0083   -0.0328
  Py  C    6   -0.0142   -0.1341   -0.1244    0.1145    0.2995    0.2485    0.0273   -0.2408
  Pz  C    6    0.0155   -0.0184    0.0147    0.0193   -0.0039    0.0018   -0.0012   -0.0108
  S   C    7    0.1090    0.0185    0.0641   -0.0904    0.0309    0.0670    0.0255    0.0279
  Px  C    7   -0.1348    0.0932   -0.1605   -0.0112    0.0519    0.0253   -0.1795   -0.1637
  Py  C    7    0.3007    0.0846    0.0897   -0.2387    0.0974    0.1785   -0.0388    0.0051
  Pz  C    7   -0.0113    0.0004   -0.0070    0.0050   -0.0010   -0.0040   -0.0041   -0.0044
  S   C    8   -0.0794   -0.0470   -0.0879   -0.0724   -0.0421   -0.0635   -0.0434   -0.0061
  Px  C    8   -0.1615    0.0167   -0.0748   -0.1889   -0.1497   -0.1694    0.1213    0.0947
  Py  C    8    0.1624    0.1840    0.2220    0.0892    0.0020    0.0706    0.1712    0.1053
  Pz  C    8    0.0209    0.0180    0.0243    0.0127    0.0046    0.0120    0.0141    0.0073
  S   C    9    0.0086   -0.0391   -0.0340    0.0096    0.0099   -0.0217   -0.0309    0.0018
  Px  C    9   -0.2368   -0.0328   -0.1430   -0.2241   -0.2022   -0.2199    0.0674    0.0868
  Py  C    9   -0.1188   -0.0526    0.0965   -0.1665   -0.1219    0.4064   -0.1771    0.0788
  Pz  C    9   -0.0046   -0.0037    0.0014   -0.0060   -0.0040    0.0160   -0.0119    0.0031
  S   C   10    0.0048   -0.0286    0.0317   -0.0082    0.0005    0.0089    0.0157    0.0079
  Px  C   10    0.2962    0.0901   -0.1030   -0.2411    0.1761   -0.2473    0.0766   -0.0709
  Py  C   10    0.1488    0.1023    0.1229   -0.1666    0.0712    0.4195   -0.1605   -0.0129
  Pz  C   10    0.0096    0.0022    0.0025   -0.0092    0.0049   -0.0000    0.0032   -0.0018
  S   C   11   -0.0910   -0.0620    0.0890    0.0470   -0.0306    0.0713    0.0372   -0.0047
  Px  C   11    0.2081    0.0289   -0.0383   -0.2157    0.1298   -0.1961    0.1258   -0.0800
  Py  C   11   -0.2173   -0.2104    0.2306    0.0298   -0.0081    0.0812    0.1456   -0.0733
  Pz  C   11    0.0224    0.0127   -0.0150   -0.0117    0.0084   -0.0158   -0.0028   -0.0004
  S   H   12   -0.1673   -0.1148    0.1227    0.0609   -0.0418    0.0966    0.0432   -0.0203
  S   C   13    0.0942   -0.0253   -0.0425    0.0885    0.0625   -0.0684   -0.0447    0.0100
  Px  C   13    0.1186   -0.1623   -0.1203   -0.0017   -0.0127    0.0198   -0.2516    0.1636
  Py  C   13   -0.2538    0.0159    0.0423   -0.2444   -0.1591    0.1810   -0.0295    0.0411
  Pz  C   13   -0.0228    0.0066    0.0092   -0.0182   -0.0119    0.0137    0.0089   -0.0029
  S   H   14    0.1878    0.0088    0.0988   -0.0990    0.0317    0.0877    0.0396    0.0543
  S   H   15   -0.0383   -0.1435   -0.0611    0.0961    0.0751    0.0328    0.0263   -0.0072
  S   H   16   -0.0747    0.1219   -0.0932   -0.0345    0.1132    0.0608    0.0526    0.0149
  S   H   17   -0.0025    0.1459    0.0824   -0.0287   -0.1325   -0.0700   -0.0569   -0.0155
  S   H   18    0.1009   -0.0695    0.1110    0.0817   -0.0740   -0.0323   -0.0092   -0.0122
  S   H   19   -0.1291   -0.0910   -0.1363   -0.0840   -0.0421   -0.0954   -0.0522   -0.0331
  S   H   20    0.1598   -0.0463   -0.0522    0.1131    0.0760   -0.0939   -0.0458    0.0216
  S   C   21    0.0091    0.0669   -0.0739    0.0516   -0.0807    0.0541    0.0177    0.0179
  Px  C   21   -0.1104   -0.0625    0.2094    0.1037    0.1627   -0.0313   -0.1554    0.1885
  Py  C   21   -0.0528    0.2773   -0.1106    0.2271   -0.1372    0.1281   -0.0164    0.1412
  Pz  C   21    0.0022    0.0100   -0.0105    0.0019   -0.0091    0.0034    0.0061   -0.0053
  S   C   22    0.0568   -0.0633   -0.0524   -0.0560   -0.0439    0.0199    0.0102   -0.0022
  Px  C   22   -0.1876    0.1834    0.1424    0.1289    0.1025   -0.0442   -0.0215   -0.0005
  Py  C   22    0.0268    0.1103   -0.1538    0.1931   -0.2028    0.1993   -0.0624    0.2548
  Pz  C   22    0.0267   -0.0224   -0.0219   -0.0133   -0.0165    0.0090    0.0014    0.0048
  S   C   23   -0.0225   -0.0647    0.0539   -0.0933    0.0378   -0.0268   -0.0037   -0.0061
  Px  C   23   -0.0283    0.2294    0.0428    0.2059    0.1329   -0.1244    0.0413   -0.1863
  Py  C   23    0.1346    0.0836   -0.2130    0.1338   -0.1873    0.1448   -0.0233    0.1393
  Pz  C   23   -0.0013   -0.0062   -0.0009   -0.0045   -0.0046    0.0047   -0.0019    0.0068
  S   C   24   -0.0450    0.1038    0.0589    0.0345    0.0791   -0.0527   -0.0201   -0.0199
  Px  C   24   -0.0134    0.2257   -0.0165    0.2509    0.0537   -0.0661    0.0655   -0.1770
  Py  C   24    0.1495   -0.2052   -0.1618    0.0514   -0.1546    0.0763    0.1028   -0.0713
  Pz  C   24    0.0027   -0.0016   -0.0021    0.0010   -0.0012    0.0003    0.0011   -0.0009
  S   H   25    0.0026    0.1611   -0.1156    0.0846   -0.1197    0.0775    0.0425    0.0141
  S   H   26    0.1168   -0.1121   -0.0872   -0.0802   -0.0618    0.0257    0.0156   -0.0019
  S   H   27   -0.0642   -0.1115    0.0963   -0.1280    0.0550   -0.0352   -0.0034   -0.0126
  S   H   28   -0.0779    0.1637    0.0764    0.0454    0.0960   -0.0603   -0.0368   -0.0127
  S   C   29   -0.0204    0.0369   -0.0093    0.0615   -0.0382    0.0333    0.0144    0.0050
  Px  C   29   -0.1403   -0.1172    0.2961    0.0375    0.2468   -0.0791   -0.1718    0.1716
  Py  C   29   -0.0815   -0.1389    0.1205   -0.0722   -0.1139    0.0976    0.3693   -0.2235
  Pz  C   29    0.0047    0.0042   -0.0098   -0.0020   -0.0057    0.0027   -0.0025   -0.0008
  S   C   30    0.0006    0.0504    0.0041    0.0612    0.0289   -0.0207   -0.0018   -0.0155
  Px  C   30    0.2062   -0.1634   -0.1850    0.1012    0.0318   -0.0570   -0.2636    0.1451
  Py  C   30    0.0738   -0.0664   -0.1342    0.0935   -0.2377    0.1260    0.3374   -0.2503
  Pz  C   30   -0.0049    0.0084    0.0047    0.0002    0.0009   -0.0009    0.0084   -0.0051


   Root No.      81        82        83        84

                81 A      82 A      83 A      84 A   

                12.565    12.651    13.155    14.394
  
  S   C    1    0.0559   -0.0165    0.0094    0.0409
  Px  C    1    0.2276    0.1609    0.1759    0.1056
  Py  C    1   -0.0020   -0.1538   -0.0952    0.0330
  Pz  C    1    0.0169    0.0141    0.0139    0.0071
  S   C    2    0.0205   -0.0151   -0.0032    0.0345
  Px  C    2    0.2822    0.1492    0.1837    0.1558
  Py  C    2    0.1792    0.0337    0.0647    0.1367
  Pz  C    2    0.0087    0.0059    0.0068    0.0035
  S   C    3   -0.0158    0.0006    0.0079    0.0233
  Px  C    3    0.2525    0.0476    0.2749    0.2439
  Py  C    3    0.1983    0.0854    0.0140    0.1205
  Pz  C    3    0.0031    0.0004    0.0042    0.0038
  S   C    4   -0.0128    0.0100   -0.0088    0.0213
  Px  C    4    0.1458   -0.2518   -0.1092    0.2252
  Py  C    4    0.1133   -0.0641   -0.2002    0.1432
  Pz  C    4    0.0086   -0.0095   -0.0107    0.0126
  S   C    5    0.0135    0.0155    0.0172    0.0251
  Px  C    5    0.1444   -0.2737   -0.1140    0.1969
  Py  C    5    0.0411   -0.1787   -0.1113    0.0601
  Pz  C    5    0.0081   -0.0221   -0.0109    0.0114
  S   C    6    0.0514   -0.0334   -0.0079    0.0430
  Px  C    6    0.1067   -0.0577   -0.0092    0.0833
  Py  C    6    0.0141   -0.3020   -0.1883    0.0791
  Pz  C    6    0.0119   -0.0145   -0.0058    0.0109
  S   C    7   -0.0567    0.0190   -0.0124    0.0033
  Px  C    7    0.2125    0.0591    0.2756    0.2661
  Py  C    7    0.0091    0.0961    0.1160    0.1446
  Pz  C    7    0.0052   -0.0004    0.0049    0.0044
  S   C    8   -0.0532    0.0157   -0.0049    0.0128
  Px  C    8    0.0298   -0.1723   -0.2339    0.2778
  Py  C    8    0.1431   -0.1065   -0.1406    0.1425
  Pz  C    8    0.0121   -0.0063   -0.0078    0.0068
  S   C    9   -0.0495    0.0361    0.0014   -0.0111
  Px  C    9   -0.0326   -0.1340   -0.2408    0.2793
  Py  C    9    0.0392    0.1991   -0.1146    0.1575
  Pz  C    9    0.0010    0.0099   -0.0044    0.0053
  S   C   10   -0.0615   -0.0011   -0.0075   -0.0078
  Px  C   10   -0.0847   -0.0906    0.2114    0.2497
  Py  C   10    0.1118    0.2024    0.1339    0.1498
  Pz  C   10   -0.0041   -0.0005    0.0071    0.0076
  S   C   11   -0.0652    0.0182    0.0134   -0.0057
  Px  C   11   -0.1691   -0.0858    0.2206    0.2405
  Py  C   11   -0.2177    0.0202    0.1486    0.1186
  Pz  C   11    0.0044   -0.0047    0.0024    0.0047
  S   H   12   -0.0523    0.0328    0.0181   -0.0008
  S   C   13   -0.0459    0.0199   -0.0078   -0.0162
  Px  C   13   -0.1209    0.1464   -0.2493    0.2420
  Py  C   13    0.0362    0.0623   -0.1066    0.1556
  Pz  C   13    0.0073   -0.0022    0.0023    0.0022
  S   H   14   -0.0478    0.0301   -0.0257   -0.0097
  S   H   15    0.0677   -0.0238    0.0066    0.0438
  S   H   16    0.0096   -0.0212   -0.0199    0.0195
  S   H   17    0.0156    0.0160    0.0259    0.0176
  S   H   18    0.0589   -0.0204    0.0037    0.0405
  S   H   19   -0.0561   -0.0028    0.0088    0.0021
  S   H   20   -0.0380   -0.0049   -0.0095   -0.0146
  S   C   21   -0.0015   -0.0300    0.0169   -0.0226
  Px  C   21   -0.2758   -0.1115    0.1199    0.1539
  Py  C   21   -0.1821   -0.1444    0.1344    0.0505
  Pz  C   21    0.0070    0.0027   -0.0030   -0.0051
  S   C   22    0.0598   -0.0199   -0.0027   -0.0341
  Px  C   22   -0.1193    0.0499   -0.0028    0.0668
  Py  C   22   -0.2235   -0.2712    0.2148    0.0567
  Pz  C   22    0.0098   -0.0108    0.0042   -0.0059
  S   C   23    0.0748   -0.0291    0.0074   -0.0415
  Px  C   23   -0.1061    0.3260   -0.1890    0.1069
  Py  C   23   -0.1113   -0.1439    0.1055    0.0246
  Pz  C   23    0.0008   -0.0098    0.0058   -0.0018
  S   C   24    0.0217    0.0285   -0.0227   -0.0216
  Px  C   24   -0.1749    0.3364   -0.1822    0.1533
  Py  C   24   -0.1460    0.1238   -0.0386    0.1181
  Pz  C   24   -0.0005    0.0008   -0.0001   -0.0001
  S   H   25   -0.0207   -0.0385    0.0367   -0.0116
  S   H   26    0.0685   -0.0285    0.0028   -0.0358
  S   H   27    0.0828   -0.0221    0.0007   -0.0388
  S   H   28    0.0178    0.0361   -0.0345   -0.0095
  S   C   29   -0.0091    0.0004   -0.0076   -0.0256
  Px  C   29   -0.2699   -0.0937    0.1222    0.1847
  Py  C   29   -0.2085    0.0359    0.2190    0.1326
  Pz  C   29    0.0129    0.0030   -0.0080   -0.0069
  S   C   30   -0.0074    0.0167    0.0018   -0.0226
  Px  C   30   -0.1591    0.1660   -0.2454    0.2130
  Py  C   30   -0.1646    0.1882    0.0244    0.1077
  Pz  C   30    0.0041   -0.0053    0.0082   -0.0070


              NET ATOMIC CHARGES AND DIPOLE CONTRIBUTIONS

  ATOM NO.   TYPE          CHARGE      No. of ELECS.   s-Pop       p-Pop       
    1          C          -0.032457        4.0325     1.10544     2.92702
    2          C          -0.027225        4.0272     1.10228     2.92494
    3          C           0.023173        3.9768     1.05383     2.92300
    4          C           0.013302        3.9867     1.06824     2.91846
    5          C          -0.029618        4.0296     1.09918     2.93044
    6          C          -0.027698        4.0277     1.10276     2.92494
    7          C          -0.036011        4.0360     1.09880     2.93721
    8          C          -0.034811        4.0348     1.09752     2.93729
    9          C           0.008780        3.9912     1.07539     2.91583
   10          C          -0.000958        4.0010     1.09017     2.91079
   11          C          -0.036779        4.0368     1.10921     2.92757
   12          H           0.029294        0.9707     0.97071
   13          C          -0.036785        4.0368     1.11036     2.92643
   14          H           0.025878        0.9741     0.97412
   15          H           0.029757        0.9702     0.97024
   16          H           0.023445        0.9766     0.97655
   17          H           0.026027        0.9740     0.97397
   18          H           0.022596        0.9774     0.97740
   19          H           0.022763        0.9772     0.97724
   20          H           0.028126        0.9719     0.97187
   21          C          -0.039121        4.0391     1.10433     2.93479
   22          C          -0.023380        4.0234     1.09622     2.92716
   23          C          -0.022549        4.0225     1.08380     2.93875
   24          C          -0.021445        4.0214     1.09997     2.92148
   25          H           0.031312        0.9687     0.96869
   26          H           0.020852        0.9791     0.97915
   27          H           0.028897        0.9711     0.97110
   28          H           0.016819        0.9832     0.98318
   29          C           0.008376        3.9916     1.07722     2.91441
   30          C           0.009438        3.9906     1.07564     2.91492
 DIPOLE           X         Y         Z       TOTAL
 POINT-CHG.     0.010    -0.039    -0.043     0.059
 HYBRID        -0.005     0.075    -0.281     0.291
 SUM            0.005     0.036    -0.324     0.326


          ATOMIC ORBITAL ELECTRON POPULATIONS

     Atom    s        px        py        pz   
    1  C   1.10544   0.97297   0.95263   1.00142
    2  C   1.10228   0.96815   0.95032   1.00648
    3  C   1.05383   0.96932   0.96807   0.98561
    4  C   1.06824   0.96821   0.96520   0.98505
    5  C   1.09918   0.97325   0.95967   0.99753
    6  C   1.10276   0.94445   0.98910   0.99139
    7  C   1.09880   0.95822   0.96006   1.01893
    8  C   1.09752   0.96960   0.95206   1.01562
    9  C   1.07539   0.97280   0.96110   0.98193
   10  C   1.09017   0.96652   0.96757   0.97670
   11  C   1.10921   0.96660   0.94608   1.01488
   12  H   0.97071
   13  C   1.11036   0.96817   0.94175   1.01651
   14  H   0.97412
   15  H   0.97024
   16  H   0.97655
   17  H   0.97397
   18  H   0.97740
   19  H   0.97724
   20  H   0.97187
   21  C   1.10433   0.96794   0.95222   1.01463
   22  C   1.09622   0.95136   0.98224   0.99356
   23  C   1.08380   0.98466   0.95328   1.00082
   24  C   1.09997   0.97118   0.95277   0.99752
   25  H   0.96869
   26  H   0.97915
   27  H   0.97110
   28  H   0.98318
   29  C   1.07722   0.96524   0.96724   0.98193
   30  C   1.07564   0.96916   0.96583   0.97993

 **********************
 *                    *
 * JOB ENDED NORMALLY *
 *                    *
 **********************



 TOTAL JOB TIME:             1.49 SECONDS

 == MOPAC DONE ==


          MOPAC Job: "./tetraceneTraj/tetracene_1853.mop" ended normally on Feb 15, 2023, at 11:37.

rm: cannot remove ./tetraceneTraj/tetracene_1853.cim: No such file or directory
rm: cannot remove ./tetraceneTraj/tetracene_1853.end: No such file or directory
rm: cannot remove ./tetraceneTraj/tetracene_1853.log: No such file or directory
rm: cannot remove ./tetraceneTraj/tetracene_1853.temp: No such file or directory
rm: cannot remove ./tetraceneTraj/tetracene_1853.ple: No such file or directory
rm: cannot remove ./tetraceneTraj/tetracene_1853.sts: No such file or directory
